pair_id,SMILES_Solute,SMILES_Solvent,Solute_name,Solvent_name,Total_conformers,Filtered_conformers,Temperature_K,LogS,Compound_Name,Solvent
2632.0,Nc1cccc(Cl)c1C(=O)O,O,mol_2632_solute_opt,mol_2632_solvent_opt,50,24,278.15,-1.4987631342676002,2-amino-6-chlorobenzoic acid,water
2633.0,OCc1ccccc1O[C@@H]1OC(CO)[C@@H](O)[C@@H](O)C1O,O,mol_2633_solute_opt,mol_2633_solvent_opt,50,12,283.15,-0.9534627782044144,D(−)-salicin,water
2634.0,OC[C@H]1O[C@@H](Oc2ccc(O)cc2)[C@H](O)[C@@H](O)[C@@H]1O,O,mol_2634_solute_opt,mol_2634_solvent_opt,50,12,283.15,-0.5340682917274291,β-Arbutin,water
2635.0,O=C(NCCO[N+](=O)[O-])c1cccnc1,O,mol_2635_solute_opt,mol_2635_solvent_opt,50,22,278.15,-1.9461415080363111,Nicorandil,water
2636.0,CCCCS(=O)(=O)N[C@@H](Cc1ccc(OCCCCC2CCNCC2)cc1)C(=O)O,O,mol_2636_solute_opt,mol_2636_solvent_opt,50,5,278.15,-4.2861377920424095,Tirofiban,water
2637.0,O=Cc1cc(Br)c(O)c(Br)c1,O,mol_2637_solute_opt,mol_2637_solvent_opt,50,32,278.15,-2.5644560326311394,"3,5-dibromo-4-hydroxybenzaldehyde",water
2638.0,Nc1cc(-c2ccncc2)c[nH]c1=O,O,mol_2638_solute_opt,mol_2638_solvent_opt,50,16,278.15,-4.420210103368518,Amrinone,water
2639.0,Cc1[nH]c(=O)c(C#N)cc1-c1ccncc1,O,mol_2639_solute_opt,mol_2639_solvent_opt,50,17,278.15,-4.557894804781443,Milrinone,water
2640.0,O=C1NC(=O)c2cc([N+](=O)[O-])ccc21,O,mol_2640_solute_opt,mol_2640_solvent_opt,50,25,278.15,-2.233585865487919,4-nitrophthalimide,water
2641.0,O=C(O)Cc1ccccc1[N+](=O)[O-],O,mol_2641_solute_opt,mol_2641_solvent_opt,50,20,283.15,-2.529095709939785,2-nitrophenylacetic acid,water
2642.0,CCCOC(=O)c1ccc(O)cc1,O,mol_2642_solute_opt,mol_2642_solvent_opt,50,18,283.15,-2.9815985602736306,Propylparaben,water
2643.0,O=C1CC[C@@H](C(=O)N2CSC[C@H]2C(=O)O)N1,O,mol_2643_solute_opt,mol_2643_solvent_opt,50,14,278.15,-1.0422177934909778,Pidotimod,water
2644.0,CCS(=O)(=O)c1cccnc1S(=O)(=O)NC(=O)Nc1nc(OC)cc(OC)n1,O,mol_2644_solute_opt,mol_2644_solvent_opt,50,9,278.15,-4.896760991846311,Rimsulfuron,water
2645.0,COC(=O)c1c(Cl)nn(C)c1S(=O)(=O)NC(=O)Nc1nc(OC)cc(OC)n1,O,mol_2645_solute_opt,mol_2645_solvent_opt,50,8,278.15,-4.74456630906421,Halosulfuron-methyl,water
2646.0,Nc1ccc(Cc2ccc(N)c(Cl)c2)cc1Cl,O,mol_2646_solute_opt,mol_2646_solvent_opt,50,17,283.15,-2.109575733188132,"4,4′-methylene-bis-(2-chloroaniline)",water
2647.0,O=Cc1cc(C=O)cc(C=O)c1,O,mol_2647_solute_opt,mol_2647_solvent_opt,50,23,283.15,-2.642962911191792,"1,3,5-triformylbenzene",water
2648.0,CC(=O)O[C@]1(C(C)=O)CC[C@H]2[C@@H]3C=C(Cl)C4=CC(=O)[C@@H]5C[C@@H]5[C@]4(C)[C@H]3CC[C@@]21C,O,mol_2648_solute_opt,mol_2648_solvent_opt,50,47,273.15,-4.4351210602029,Cyproterone acetate,water
2649.0,CC(=O)NCC(=O)O,O,mol_2649_solute_opt,mol_2649_solvent_opt,50,22,283.15,-0.6632265516561063,N-acetylglycine,water
2650.0,O=C(O)[C@@H]1CSCN1,O,mol_2650_solute_opt,mol_2650_solvent_opt,50,27,283.15,-0.7830383133905578,L-thioproline,water
2651.0,CC(=O)N1CCC[C@H]1C(=O)O,O,mol_2651_solute_opt,mol_2651_solvent_opt,50,14,283.15,-0.1450266877697738,N-acetyl-L-proline,water
2652.0,O=C(O)c1ccc(CO)cc1,O,mol_2652_solute_opt,mol_2652_solvent_opt,50,24,283.15,-1.8677349962729544,4-(hydroxymethyl) benzoic acid,water
2653.0,CC(=O)Nc1ccccc1[N+](=O)[O-],O,mol_2653_solute_opt,mol_2653_solvent_opt,50,21,278.15,-2.259969103608822,o-nitroacetanilide,water
2654.0,O=C(O)CNCc1ccccc1,O,mol_2654_solute_opt,mol_2654_solvent_opt,50,15,283.15,-0.2932831204230104,N-benzylglycine,water
2655.0,Nc1cccc(S(=O)(=O)c2cccc(N)c2)c1,O,mol_2655_solute_opt,mol_2655_solvent_opt,50,12,283.15,-3.073343311903449,"3,3′-diaminodiphenyl sulfone",water
2656.0,CSCCC(NC(C)=O)C(=O)O,O,mol_2656_solute_opt,mol_2656_solvent_opt,50,14,283.15,-0.4830837220589845,N-acetyl-DL-methionine,water
2657.0,OCC(CO)(CO)CO,O,mol_2657_solute_opt,mol_2657_solvent_opt,50,14,283.15,-0.4505685701396085,Pentaerythritol,water
2658.0,Cc1c(N)cccc1C(=O)O,O,mol_2658_solute_opt,mol_2658_solvent_opt,50,23,288.15,-1.4915219901708698,3-amino-2-methylbenzoic acid,water
2659.0,CC(C)(C)OC(=O)N1CCC[C@H]1C(=O)O,O,mol_2659_solute_opt,mol_2659_solvent_opt,50,7,283.15,-2.43619197442671,Boc-L-proline,water
2660.0,CNC(=O)c1cc(Oc2ccc(N)cc2)ccn1,O,mol_2660_solute_opt,mol_2660_solvent_opt,50,7,278.15,-1.740957505308212,4-[2-(n-methylcarbamyl)-4-pyridyloxy]aniline,water
2661.0,O=C(N[C@H](C(=O)O)c1ccccc1)OCc1ccccc1,O,mol_2661_solute_opt,mol_2661_solvent_opt,50,9,283.15,-3.2143671119265185,N-carbobenzoxy-L-2-phenylglycine,water
2662.0,Nc1cccc(C(=O)O)c1,O,mol_2662_solute_opt,mol_2662_solvent_opt,50,18,283.15,-1.551394248886404,M-aminobenzoic acid,water
2663.0,O=C(O)c1cccc([N+](=O)[O-])c1O,O,mol_2663_solute_opt,mol_2663_solvent_opt,50,18,278.15,-2.2617275570001185,3-nitrosalicylic acid,water
2664.0,COC(=O)c1sccc1S(=O)(=O)NC(=O)Nc1nc(C)nc(OC)n1,O,mol_2664_solute_opt,mol_2664_solvent_opt,50,12,278.15,-3.565892473472632,Thifensulfuron methyl,water
2665.0,CC(C)(Oc1ccc(C2CC2(Cl)Cl)cc1)C(=O)O,O,mol_2665_solute_opt,mol_2665_solvent_opt,50,15,278.15,-4.480765271047243,Ciprofibrate,water
2666.0,CNc1nc(C)nc(OC)n1,O,mol_2666_solute_opt,mol_2666_solvent_opt,50,14,278.15,-3.843858170029108,"2-methyl-4-methylamino-6-methoxy-1,3,5-triazine",water
2667.0,COCCOc1ccccc1S(=O)(=O)NC(=O)Nc1nc(OC)nc(OC)n1,O,mol_2667_solute_opt,mol_2667_solvent_opt,50,10,278.15,-1.6518955665354236,Cinosulfuron,water
2668.0,Cn1c([N+](=O)[O-])cnc1N1CCN(S(C)(=O)=O)C1=O,O,mol_2668_solute_opt,mol_2668_solvent_opt,50,14,293.2,-3.8003710574993903,Satranidazole,water
2669.0,C#C[C@]1(O)C=C[C@H]2[C@@H]3CCC4=CC(=O)CC[C@@H]4[C@H]3CC[C@@]21CC,O,mol_2669_solute_opt,mol_2669_solvent_opt,50,7,283.15,-3.4213409044273457,Gestodene,water
2670.0,O=C(NC(=O)c1c(F)cccc1F)Nc1ccc(Oc2ccc(C(F)(F)F)cc2Cl)cc1F,O,mol_2670_solute_opt,mol_2670_solvent_opt,50,11,278.15,-4.541904592418804,Flufenoxuron,water
2671.0,O=C(O)CSc1ccc2ccccc2c1,O,mol_2671_solute_opt,mol_2671_solvent_opt,50,15,278.15,-4.102136687751861,(2-naphthylthio)acetic acid,water
2672.0,COC(=O)CC[C@H](N)C(=O)O,O,mol_2672_solute_opt,mol_2672_solvent_opt,50,12,283.15,0.2870200009686791,L-glutamic acid 5-methyl ester,water
2673.0,Nc1cnc(Cl)cn1,O,mol_2673_solute_opt,mol_2673_solvent_opt,50,31,278.15,-2.688016805280051,5-chloropyrazin-2-amine,water
2674.0,CO/N=C1\C[C@]2(C[C@@H]3C[C@@H](C/C=C(\C)C[C@@H](C)/C=C/C=C4\CO[C@@H]5[C@H](O)C(C)=C[C@@H](C(=O)O3)[C@]45O)O2)O[C@H](/C(C)=C/C(C)C)[C@H]1C,O,mol_2674_solute_opt,mol_2674_solvent_opt,50,4,278.15,-3.681382836305501,Moxidectin,water
2675.0,O=C(NC(=O)c1c(F)cccc1F)Nc1cc(Cl)c(F)c(Cl)c1F,O,mol_2675_solute_opt,mol_2675_solvent_opt,50,10,278.15,-3.4216689610072155,Teflubenzuron,water
2676.0,CC(C)(C)OC(=O)N[C@@H](CC(N)=O)C(=O)O,O,mol_2676_solute_opt,mol_2676_solvent_opt,50,14,283.15,-1.8629603371035053,Boc-L-asparagine,water
2677.0,NC(=O)C[C@H](NC(=O)OCc1ccccc1)C(=O)O,O,mol_2677_solute_opt,mol_2677_solvent_opt,50,15,283.15,-2.9253415069997697,N-benzyloxycarbonyl-L-asparagine,water
2678.0,CCn1c2ccccc2c2cc(-n3nncc3-c3ccccc3)ccc21,O,mol_2678_solute_opt,mol_2678_solvent_opt,50,8,278.15,-4.492668552990442,MBQ-167,water
2679.0,CC(=O)Nc1ccc([N+](=O)[O-])cc1,O,mol_2679_solute_opt,mol_2679_solvent_opt,50,25,278.15,-3.451573280572456,p-Nitroacetanilide,water
2680.0,COC(=O)C1=C(C)NC(C)=C(C(=O)OCC(C)C)C1c1ccccc1[N+](=O)[O-],O,mol_2680_solute_opt,mol_2680_solvent_opt,50,9,278.15,-3.677579767844664,Nisoldipine,water
2681.0,CC(=O)OC(OC(C)=O)c1ccc([N+](=O)[O-])o1,O,mol_2681_solute_opt,mol_2681_solvent_opt,50,15,293.15,0.4509205958051639,2-(diacetoxymethyl)-5-nitrofuran,water
2682.0,NC(N)=NCCC[C@H](NC(=O)OCc1ccccc1)C(=O)O,O,mol_2682_solute_opt,mol_2682_solvent_opt,50,10,283.15,-1.958136733958348,Nα-carbobenzyloxy-L-arginine,water
2683.0,CC(C)OC(=O)[C@H](C)N[P@](=O)(OC[C@H]1O[C@@H](n2ccc(=O)[nH]c2=O)[C@](C)(F)[C@@H]1O)Oc1ccccc1,O,mol_2683_solute_opt,mol_2683_solvent_opt,50,9,278.15,-3.182290451024473,Sofosbuvir,water
2684.0,O=C(O)c1cc([N+](=O)[O-])ccc1O,O,mol_2684_solute_opt,mol_2684_solvent_opt,50,21,278.15,-2.7746217282389702,5-nitroSalicylic acid,water
2685.0,Nc1ncc(Br)nc1Br,O,mol_2685_solute_opt,mol_2685_solvent_opt,50,33,278.15,-3.849446765241418,"2-amino-3,5-dibromopyrazine",water
2686.0,Nc1nccnc1Cl,O,mol_2686_solute_opt,mol_2686_solvent_opt,50,29,278.15,-2.8117466794997545,2-amino-3-chloropyrazine,water
2687.0,O=C(N[C@@H](Cc1c[nH]c2ccccc12)C(=O)O)OCc1ccccc1,O,mol_2687_solute_opt,mol_2687_solvent_opt,50,9,283.15,-2.6466863699907144,N-benzyloxycarbonyl-L-tryptophan,water
2688.0,CC(C)(C)OC(=O)N[C@@H](CCC(N)=O)C(=O)O,O,mol_2688_solute_opt,mol_2688_solvent_opt,50,12,283.15,-0.3965715757364033,Boc-L-glutamine,water
2689.0,NC(=O)Nc1ccccc1,O,mol_2689_solute_opt,mol_2689_solvent_opt,50,23,283.15,-1.6436511996381384,1-phenylurea,water
2690.0,COc1cc(C(=O)O)ccc1O,O,mol_2690_solute_opt,mol_2690_solvent_opt,50,17,283.15,-2.352639842410007,Vanillic acid,water
2691.0,O=c1[nH]nc([N+](=O)[O-])[nH]1,O,mol_2691_solute_opt,mol_2691_solvent_opt,50,27,278.15,-1.2474571805174255,"3-nitro-1,2,4-triazol-5-one",water
2692.0,N#Cc1ccncc1,O,mol_2692_solute_opt,mol_2692_solvent_opt,50,28,278.15,-0.8333904184946884,4-cyanopyridine,water
2693.0,Nc1cccc2ccncc12,O,mol_2693_solute_opt,mol_2693_solvent_opt,50,21,278.15,-2.7166817109681745,8-isoquinolinamine,water
2694.0,Nc1ccnc(=O)[nH]1,O,mol_2694_solute_opt,mol_2694_solvent_opt,50,24,288.15,-1.3703870170546577,Cytosine,water
2695.0,O=c1cnc(Br)c[nH]1,O,mol_2695_solute_opt,mol_2695_solvent_opt,50,30,278.15,-3.341300572796707,2-bromo-5-hydroxypyrazine,water
2696.0,CC1(C)CC[C@]2(C(=O)O)CC[C@]3(C)C(=CC[C@@H]4[C@@]5(C)CC[C@H](O)C(C)(C)[C@@H]5CC[C@]43C)[C@@H]2C1,O,mol_2696_solute_opt,mol_2696_solvent_opt,50,4,278.15,-5.237779531271488,Oleanolic acid,water
2697.0,C[C@H]1[C@H](C)CC[C@]2(C(=O)O)CC[C@]3(C)C(=CC[C@@H]4[C@@]5(C)CC[C@H](O)C(C)(C)[C@@H]5CC[C@]43C)[C@H]12,O,mol_2697_solute_opt,mol_2697_solvent_opt,50,3,278.15,-5.190815025328315,Ursolic acid,water
2698.0,Nc1cnc(Br)cn1,O,mol_2698_solute_opt,mol_2698_solvent_opt,50,30,278.15,-3.0101269840241853,2-amino-5-bromopyrazine,water
2699.0,O=[N+]([O-])n1cccn1,O,mol_2699_solute_opt,mol_2699_solvent_opt,50,27,293.15,-1.1517144602474787,N-nitropyrazole,water
2700.0,NC(=O)CC[C@H](N)C(=O)O,O,mol_2700_solute_opt,mol_2700_solvent_opt,50,19,283.15,-0.7027290023741162,L-glutamine,water
2701.0,Nc1ccc(Br)nn1,O,mol_2701_solute_opt,mol_2701_solvent_opt,50,31,278.15,-2.845027574036276,3-amino-6-bromopyridazine,water
2702.0,O=C(Nc1ccncc1)c1cc(C(=O)Nc2ccncc2)cc(C(=O)Nc2ccncc2)c1,O,mol_2702_solute_opt,mol_2702_solvent_opt,50,6,283.15,-3.588309601986329,"N1,N3,N5-tris(pyridin-4-yl)benzene-1,3,5-tricarboxamide (TPBTC)",water
2703.0,Cc1ccc2cc(Br)ccc2n1,O,mol_2703_solute_opt,mol_2703_solvent_opt,50,20,278.15,-3.4183084412543416,6-bromo-2-methylquinoline,water
2704.0,O=S1(=O)OC(c2ccc(O)cc2)(c2ccc(O)cc2)c2ccccc21,O,mol_2704_solute_opt,mol_2704_solvent_opt,50,6,278.15,-2.786844251914187,Phenol red,water
2706.0,COC(=O)c1ccnc(N)c1,O,mol_2706_solute_opt,mol_2706_solvent_opt,50,21,278.15,-1.2842899754382189,Methyl 2-aminopyridine-4-carboxylate,water
2707.0,CC(C)C[C@H](N)C(=O)O,O,mol_2707_solute_opt,mol_2707_solvent_opt,50,12,283.15,-0.7462374823253526,L-leucine,water
2708.0,CC(C)[C@H](N)C(=O)O,O,mol_2708_solute_opt,mol_2708_solvent_opt,50,9,283.15,-0.2901598267509889,L-valine,water
2709.0,N#CN=C(N)N,O,mol_2709_solute_opt,mol_2709_solvent_opt,50,28,283.15,-0.5781990486153907,Dicyandiamide,water
2710.0,O=C(O)CNC(=O)C(=O)NCC(=O)O,O,mol_2710_solute_opt,mol_2710_solvent_opt,50,15,293.15,-2.1532380245964005,"N,N′-oxalyldiglycine",water
2711.0,O=C1C(CCS(=O)c2ccccc2)C(=O)N(c2ccccc2)N1c1ccccc1,O,mol_2711_solute_opt,mol_2711_solvent_opt,50,9,283.15,-2.6998085146783337,Sulfinpyrazone,water
2712.0,Nc1nonc1-c1no[n+]([O-])c1-c1nonc1N,O,mol_2712_solute_opt,mol_2712_solvent_opt,50,16,283.15,-3.054360544692708,"3,4-bis(4′-aminofurazan-3′-yl)furoxan",water
2713.0,NC(=O)CS(=O)C(c1ccccc1)c1ccccc1,O,mol_2713_solute_opt,mol_2713_solvent_opt,50,8,290.7,-2.5235465733356373,Modafinil,water
2714.0,O=c1ccc2cc(O)c(O)cc2o1,O,mol_2714_solute_opt,mol_2714_solvent_opt,50,24,273.15,-0.6828619006032121,Esculetin,water
2715.0,CC(C)(N)C(=O)O,O,mol_2715_solute_opt,mol_2715_solvent_opt,50,16,283.15,0.1630411720324623,α-Aminoisobutyric Acid,water
2716.0,CC(=O)N[C@H](C(=O)O)C(C)C,O,mol_2716_solute_opt,mol_2716_solvent_opt,50,14,283.15,-0.5076404388438063,N-acetyl-L-valine,water
2717.0,N[C@@H](CCC(=O)N[C@@H](CS)C(=O)NCC(=O)O)C(=O)O,O,mol_2717_solute_opt,mol_2717_solvent_opt,50,12,278.15,-0.6237697810305887,Glutathione,water
2718.0,N#CCC(N)=O,O,mol_2718_solute_opt,mol_2718_solvent_opt,50,33,283.15,-0.0157948799775813,2-cyanoacetamide,water
2719.0,NNC(=O)c1ccccc1,O,mol_2719_solute_opt,mol_2719_solvent_opt,50,17,283.15,-0.5502744525857158,Benzhydrazide,water
2720.0,NNC(=O)c1ccccc1O,O,mol_2720_solute_opt,mol_2720_solvent_opt,50,23,283.15,-0.1651562074948979,2-Hydroxybenzohydrazide,water
2721.0,c1ccc2[nH]cnc2c1,O,mol_2721_solute_opt,mol_2721_solvent_opt,50,28,283.15,-1.5580572243027244,Benzimidazole,water
2722.0,Cc1cccc2sc(NN)nc12,O,mol_2722_solute_opt,mol_2722_solvent_opt,50,16,273.15,-3.405715116231396,2-hydrazino-4-methylbenzothiazole,water
2723.0,COc1cc2oc(=O)cc(-c3ccccc3)c2cc1O,O,mol_2723_solute_opt,mol_2723_solvent_opt,50,14,283.2,-5.241928231311648,Dalbergin,water
2724.0,O=c1cc(-c2ccccc2)c2cc(O)c(O)cc2o1,O,mol_2724_solute_opt,mol_2724_solvent_opt,50,14,283.2,-5.354515356988638,Nordalbergin,water
2725.0,C=CC(=O)NC(C)(C)C,O,mol_2725_solute_opt,mol_2725_solvent_opt,50,15,294.15,-1.304388969077794,N-tert-butylacrylamide,water
2726.0,C=C1C[C@]23C[C@H]1CC[C@H]2[C@@]12CC[C@H](O)[C@@](C)(C(=O)O1)[C@H]2[C@@H]3C(=O)O,O,mol_2726_solute_opt,mol_2726_solvent_opt,50,8,278.15,-3.3014008773812296,Gibberellin A4,water
2727.0,OC[C@@H](O)[C@@H](O[C@H]1O[C@H](CO)[C@@H](O)[C@H](O)[C@H]1O)[C@H](O)[C@@H](O)CO,O,mol_2727_solute_opt,mol_2727_solvent_opt,50,10,298.15,0.5600048411769651,Maltitol,water
2728.0,COc1cc(Cc2cnc(N)nc2N)cc(OC)c1OC,O,mol_2728_solute_opt,mol_2728_solvent_opt,50,8,293.15,-2.9562431446183366,Trimethoprim,water
2729.0,CC(C)C[C@H](CN)CC(=O)O,O,mol_2729_solute_opt,mol_2729_solvent_opt,50,9,283.15,-0.7111711288981096,(S)-3-(aminomethyl)-5-methylhexanoic acid,water
2730.0,O=C(O)c1cc(C(=O)O)cc(C(=O)O)c1,O,mol_2730_solute_opt,mol_2730_solvent_opt,50,17,301.05,-2.081105164669864,"1,3,5-benzenetricarboxylic acid",water
2731.0,Cc1c(O)c(=O)ccn1C,O,mol_2731_solute_opt,mol_2731_solvent_opt,50,16,283.1,-0.9892020581596525,Deferiprone,water
2732.0,O=C1NC23NC(=O)NC2(N1)C(=O)NC3=O,O,mol_2732_solute_opt,mol_2732_solvent_opt,50,25,273.15,-2.480326076634858,"3,7,9,11-Tetraoxo-2,4,6,8,10-pentaaza[3.3.3] Propellane (TOPAP)",water
2733.0,COC(=O)[C@H](N)c1ccc(O)cc1,O,mol_2733_solute_opt,mol_2733_solvent_opt,50,15,283.13,-2.975779643714791,Methyl D-(−)-4-hydroxy-phenylglycinate,water
2734.0,C[C@@H]1O[C@@H](O[C@H]2[C@H](Oc3cc(O)c(C(=O)CCc4ccc(O)cc4)c(O)c3)O[C@H](CO)[C@@H](O)[C@@H]2O)[C@H](O)[C@H](O)[C@H]1O,O,mol_2734_solute_opt,mol_2734_solvent_opt,50,8,298.15,-2.928528474619044,Naringin dihydrochalcone,water
2735.0,CS(=O)(=O)c1ccc([C@@H](O)[C@@H](CO)NC(=O)C(Cl)Cl)cc1,O,mol_2735_solute_opt,mol_2735_solvent_opt,50,13,278.15,-2.857522741917158,Thiamphenicol,water
2736.0,Cc1ccc(-c2ncc(Cl)cc2-c2ccc(S(C)(=O)=O)cc2)cn1,O,mol_2736_solute_opt,mol_2736_solvent_opt,50,9,298.2,-3.058713582746454,Etoricoxib,water
2737.0,O=C(O)c1ccc(C(=O)O)o1,O,mol_2737_solute_opt,mol_2737_solvent_opt,50,20,313.15,-1.95208450056678,"2,5-furandicarboxylic acid",water
2738.0,CN1CC(O)c2cc(N=NC(N)=O)c(O)cc21,O,mol_2738_solute_opt,mol_2738_solvent_opt,50,16,278.15,-2.806774241691567,Carbazochrome,water
2739.0,Nc1ccc(S(=O)(=O)Nc2ccc(Cl)nn2)cc1,O,mol_2739_solute_opt,mol_2739_solvent_opt,50,14,283.15,-2.902800873532286,Sulfachloropyridazine,water
2740.0,O=C(O)Cc1ccccc1Cl,O,mol_2740_solute_opt,mol_2740_solvent_opt,50,22,273.15,-2.1021626713094954,2-chlorophenylacetic acid,water
2741.0,O=C(c1ccccc1)c1ccccc1,O,mol_2741_solute_opt,mol_2741_solvent_opt,50,10,278.15,-0.7226892612812639,Benzophenone,water
2742.0,COc1ccc(CC(=O)O)cc1,O,mol_2742_solute_opt,mol_2742_solvent_opt,50,14,283.15,-1.2138939023209985,Para-methoxyphenylacetic acid,water
2743.0,C[C@H](O)[C@@H](O)[C@@H](O)[C@H](O)C=O,O,mol_2743_solute_opt,mol_2743_solvent_opt,50,18,288.15,0.4760699774684732,L-fucose,water
2744.0,O=c1nc[nH]c2[nH]ncc12,O,mol_2744_solute_opt,mol_2744_solvent_opt,50,27,278.15,-3.315874739485211,Allopurinol,water
2745.0,COc1cc(N)nc(OC)n1,O,mol_2745_solute_opt,mol_2745_solvent_opt,50,14,283.15,-1.7814188712310817,"4-amino-2,6-dimethoxypyrimidine",water
2746.0,O=C(OCC1c2ccccc2-c2ccccc21)ON1C(=O)CCC1=O,O,mol_2746_solute_opt,mol_2746_solvent_opt,50,10,293.15,-3.495309305763825,N-(9-fluorenylmethoxycarbonyloxy)succinimide,water
2747.0,NNC(=O)c1ccncc1,O,mol_2747_solute_opt,mol_2747_solvent_opt,50,21,283.15,-0.2265766241623971,Isoniazid,water
2748.0,N#CCc1ccc([N+](=O)[O-])cc1,O,mol_2748_solute_opt,mol_2748_solvent_opt,50,29,278.15,-3.079839152517124,p-nitrophenylacetonitrile,water
2749.0,C[C@H]1[C@H](OC(=O)CCC(=O)O)O[C@@H]2O[C@@]3(C)CC[C@H]4[C@H](C)CC[C@@H]1[C@@]24OO3,O,mol_2749_solute_opt,mol_2749_solvent_opt,50,10,278.15,-3.278834841019211,Artesunate,water
2750.0,Nc1nc(Cl)c2[nH]cnc2n1,O,mol_2750_solute_opt,mol_2750_solvent_opt,50,20,278.15,-3.739374986968016,2-amino-6-chloropurine,water
2751.0,CC(C)N1C(=O)N(c2ccccc2)CSC1=NC(C)(C)C,O,mol_2751_solute_opt,mol_2751_solvent_opt,50,10,273.15,-2.799189922147724,Buprofezin,water
2752.0,COC(=O)Nc1nc2ccc(C(=O)c3ccc(F)cc3)cc2[nH]1,O,mol_2752_solute_opt,mol_2752_solvent_opt,50,15,283.15,-5.241664207968077,Flubendazole,water
2753.0,NC(=O)c1ccc(N)cc1,O,mol_2753_solute_opt,mol_2753_solvent_opt,50,19,283.15,-1.3217019069124682,4-aminobenzamide,water
2754.0,O=C(O)[C@H]1O[C@@H](Oc2cc3oc(-c4ccccc4)cc(=O)c3c(O)c2O)[C@H](O)[C@@H](O)[C@@H]1O,O,mol_2754_solute_opt,mol_2754_solvent_opt,50,9,278.15,-3.879069304809872,Baicalin,water
2755.0,N#Cc1cccc([N+](=O)[O-])c1C#N,O,mol_2755_solute_opt,mol_2755_solvent_opt,50,25,278.15,-2.529957543122792,3-nitrophthalonitrile,water
2756.0,O=Cc1ccc(C(=O)O)cc1,O,mol_2756_solute_opt,mol_2756_solvent_opt,50,22,283.15,-2.9241255366608008,Terephthalaldehydic acid,water
2757.0,CP(=O)(O)CC[C@H](N)C(=O)O,O,mol_2757_solute_opt,mol_2757_solvent_opt,50,12,278.15,0.182617242500716,L‑Phosphinothricin ,water
2758.0,NC(=O)c1ccc([N+](=O)[O-])cc1,O,mol_2758_solute_opt,mol_2758_solvent_opt,50,28,283.15,-1.7483088427049172,p-Nitrobenzamide,water
2759.0,c1ccc(-c2ccc(C(c3ccccc3)n3ccnc3)cc2)cc1,O,mol_2759_solute_opt,mol_2759_solvent_opt,50,14,278.15,-3.4361004935935724,Bifonazole,water
2760.0,NS(=O)(=O)c1cc2c(cc1Cl)NCNS2(=O)=O,O,mol_2760_solute_opt,mol_2760_solvent_opt,50,17,283.25,-2.894031093714592,Hydrochlorothiazide,water
2761.0,N#CCc1ccccc1[N+](=O)[O-],O,mol_2761_solute_opt,mol_2761_solvent_opt,50,21,278.15,-2.68113672348228,o-nitrophenylacetonitrile,water
2762.0,CC(=NC#N)N(C)Cc1ccc(Cl)nc1,O,mol_2762_solute_opt,mol_2762_solvent_opt,50,19,278.15,-2.091826446754577,Acetamiprid,water
2763.0,N[C@H](CC(=O)O)C(=O)O,O,mol_2763_solute_opt,mol_2763_solvent_opt,50,20,288.15,-1.5114912240155003,D-aspartic acid,water
2764.0,Cc1cnc(C(=O)O)cn1,O,mol_2764_solute_opt,mol_2764_solvent_opt,50,18,273.15,-3.7315339687880495,5-methyl-2-pyrazinecarboxylic acid,water
2765.0,N[C@@H](CO)C(=O)O,O,mol_2765_solute_opt,mol_2765_solvent_opt,50,23,278.15,0.3517659963971541,L-serine,water
2766.0,Cc1c(C(=O)O)cc([N+](=O)[O-])cc1[N+](=O)[O-],O,mol_2766_solute_opt,mol_2766_solvent_opt,50,19,288.15,-3.0333015835611783,"3,5-dinitro-2-methylbenzoic acid",water
2767.0,NCCCCCC(=O)O,O,mol_2767_solute_opt,mol_2767_solvent_opt,50,12,283.15,0.8717119324267022,Aminocaproic acid,water
2768.0,O=C1C=CC(=O)N1c1ccccc1Br,O,mol_2768_solute_opt,mol_2768_solvent_opt,50,17,278.15,-2.0135272216818505,"1-(2-bromo-phenyl)-pyrrole-2,5-dione",water
2769.0,O=[N+]([O-])c1ncccc1O,O,mol_2769_solute_opt,mol_2769_solvent_opt,50,23,278.15,-1.336208589016867,3-hydroxy-2-nitropyridine,water
2770.0,Cc1nc(N)nc(N)n1,O,mol_2770_solute_opt,mol_2770_solvent_opt,50,18,283.15,-2.170064385763874,Acetoguanamine,water
2771.0,N[C@H](Cc1c[nH]cn1)C(=O)O,O,mol_2771_solute_opt,mol_2771_solvent_opt,50,20,293.15,-0.5937437967697798,D-histidine,water