pair_id,SMILES_Solute,SMILES_Solvent,Solute_name,Solvent_name,Total_conformers,Filtered_conformers,Temperature_K,LogS,Compound_Name,Solvent
3769.0,CC(C)(C)c1cc(CCC(=O)NCCCCCCNC(=O)CCc2cc(C(C)(C)C)c(O)c(C(C)(C)C)c2)cc(C(C)(C)C)c1O,CCCO,mol_3769_solute_opt,mol_3769_solvent_opt,50,19,283.15,-1.0143740292627752,"1,6-bis[3-(3,5-di-tert-butyl-4-hydroxyphenyl)propionamido]hexane",n-propanol
3770.0,OC[C@H]1O[C@@H](Oc2c(O)cc(O)cc2/C=C/c2ccc(O)cc2)[C@H](O)[C@@H](O)[C@@H]1O,CCCO,mol_3770_solute_opt,mol_3770_solvent_opt,50,31,278.15,-1.0853020755489076,"2,3,5,4′-tetrahydroxystilbene-2-o-β-d-glucoside",n-propanol
3771.0,O=c1[nH]c2ccccc2n1CCCN1CCC(n2c(=O)[nH]c3cc(Cl)ccc32)CC1,CCCO,mol_3771_solute_opt,mol_3771_solvent_opt,50,31,278.15,-3.7963763020970056,Domperidone,n-propanol
3772.0,Cc1cc(=O)n(-c2ccccc2)n1C,CCCO,mol_3772_solute_opt,mol_3772_solvent_opt,50,38,288.15,0.3749660711266395,Antipyrine,n-propanol
3773.0,O=C(O)c1cccc2ccccc12,CCCO,mol_3773_solute_opt,mol_3773_solvent_opt,50,34,293.15,-0.4302696057565496,1-naphthoic acid,n-propanol
3774.0,NC(=O)N/N=C/c1ccc([N+](=O)[O-])o1,CCCO,mol_3774_solute_opt,mol_3774_solvent_opt,50,38,278.15,-2.936069974253173,5-nitrofurazone,n-propanol
3775.0,COc1ccc(-c2nn(-c3ccccc3)cc2/C=C/C(=O)c2nc3ccccc3[nH]2)cc1,CCCO,mol_3775_solute_opt,mol_3775_solvent_opt,50,29,298.15,-2.185481334016901,(E)‑1‑(1H‑benzo[d]imidazole‑2‑yl)‑3‑(3‑(4‑methxyphenyl)‑1‑phenyl‑1H‑pyrazol‑4‑yl) prop‑2‑en‑1-one,n-propanol
3776.0,COc1ccc(-c2nn(-c3ccccc3)cc2/C=C/C(=O)c2nc3ccccc3[nH]2)cc1OC,CCCO,mol_3776_solute_opt,mol_3776_solvent_opt,50,31,298.15,-2.778667293098749,"(E)‑1‑(1H‑benzo[d]imidazole‑2‑yl)‑3‑(3‑(3,4‑dimethoxyphenyl)‑1‑phenyl‑1H‑pyrazol‑4‑yl)prop‑2‑en‑1-one",n-propanol
3777.0,COc1cccc(-c2nn(-c3ccccc3)cc2/C=C/C(=O)c2nc3ccccc3[nH]2)c1,CCCO,mol_3777_solute_opt,mol_3777_solvent_opt,50,31,298.15,-2.7769347462165275,(E)‑1‑(1H‑benzo[d]imidazole‑2‑yl)‑3‑(3‑methxyphenyl‑1H‑pyrazol‑4‑yl)prop‑2‑en-1-one,n-propanol
3778.0,O=C(/C=C/c1cn(-c2ccccc2)nc1-c1ccc(Cl)cc1)c1nc2ccccc2[nH]1,CCCO,mol_3778_solute_opt,mol_3778_solvent_opt,50,28,298.15,-2.9542561958435645,(E)‑1‑(1H‑benzo[d]imidazole‑2‑yl)‑3‑(3‑(4‑chlorophenyl)‑phenyl‑1H‑pyrazol‑4‑yl) prop‑2‑en‑1-one,n-propanol
3779.0,O=C(/C=C/c1cn(-c2ccccc2)nc1-c1ccc(F)cc1)c1nc2ccccc2[nH]1,CCCO,mol_3779_solute_opt,mol_3779_solvent_opt,50,26,298.15,-1.859456218321939,(E)‑1‑(1H‑benzo[d]imidazole‑2‑yl)‑3‑(3‑(4‑fluorophenyl)‑1H‑pyrazol‑4‑yl)pop‑2‑en‑1-one,n-propanol
3780.0,O=C(/C=C/c1cn(-c2ccccc2)nc1-c1cccc([N+](=O)[O-])c1)c1nc2ccccc2[nH]1,CCCO,mol_3780_solute_opt,mol_3780_solvent_opt,50,26,298.15,-2.817123720189338,(E)‑1‑(1H‑benzo[d]imidazole‑2‑yl)‑3‑(3‑(3‑nitrophenyl)‑1‑phenyl‑1H‑pyrazol‑4‑yl) prop‑2‑en‑1-one,n-propanol
3781.0,O=C(/C=C/c1cn(-c2ccccc2)nc1-c1ccccc1)c1nc2ccccc2[nH]1,CCCO,mol_3781_solute_opt,mol_3781_solvent_opt,50,29,298.15,-2.744943524241324,"(E)‑1‑(1H‑benzo[d]imidazole‑2‑yl)‑3‑(1, 3‑diphenyl‑1H‑pyrazol‑4‑yl) prop‑2‑en‑1-one",n-propanol
3782.0,O=C(/C=C/c1cn(-c2ccccc2)nc1-c1ccccc1Cl)c1nc2ccccc2[nH]1,CCCO,mol_3782_solute_opt,mol_3782_solvent_opt,50,25,298.15,-2.6805647753679205,(E)‑1‑(1H‑benzo[d]imidazole‑2-yl)‑3‑(3‑(2‑chlorophenyl)‑1‑phenyl‑1H‑pyrazol‑4‑yl) prop‑2‑en‑1-one,n-propanol
3783.0,NC(=O)c1ccccc1,CCCO,mol_3783_solute_opt,mol_3783_solvent_opt,50,34,283.15,-0.337754493791308,Benzamide,n-propanol
3784.0,NC(=O)Cc1ccccc1,CCCO,mol_3784_solute_opt,mol_3784_solvent_opt,50,34,273.75,-0.9479278788186004,2-phenylacetamide,n-propanol
3785.0,CC(=O)N1CCN(c2ccc(OC[C@H]3CO[C@](Cn4ccnc4)(c4ccc(Cl)cc4Cl)O3)cc2)CC1,CCCO,mol_3785_solute_opt,mol_3785_solvent_opt,50,28,293.2,-1.1231401868632986,Ketoconazole,n-propanol
3786.0,COC(=O)c1cc(O)c(O)c(O)c1,CCCO,mol_3786_solute_opt,mol_3786_solvent_opt,50,34,293.15,-0.2266008897726861,Methyl gallate,n-propanol
3787.0,Cc1ccc(S(N)(=O)=O)cc1,CCCO,mol_3787_solute_opt,mol_3787_solvent_opt,50,42,273.15,-0.8989965607215119,p-Toluenesulfonamide,n-propanol
3788.0,COc1ccccc1OCCNCC(O)COc1cccc2[nH]c3ccccc3c12,CCCO,mol_3788_solute_opt,mol_3788_solvent_opt,50,29,288.15,-2.069341574310944,Carvedilol,n-propanol
3789.0,CC(=O)OC(c1ccccc1)C(Cl)(Cl)Cl,CCCO,mol_3789_solute_opt,mol_3789_solvent_opt,50,38,288.15,-0.845932761687226,Alpha-(trichloromethyl) benzyl acetate,n-propanol
3790.0,O=C1Cc2cc(F)ccc2N1,CCCO,mol_3790_solute_opt,mol_3790_solvent_opt,50,40,278.15,-0.3867649002286333,5-fluoro-2-oxindole,n-propanol
3791.0,O=C1C2C3C=CC(C3)C2C(=O)N1O,CCCO,mol_3791_solute_opt,mol_3791_solvent_opt,50,37,278.15,-0.5763605405339606,"N-hydroxy-5-norbornene-2,3-dicarboximide",n-propanol
3792.0,Cc1c[nH]c(=O)[nH]c1=O,CCCO,mol_3792_solute_opt,mol_3792_solvent_opt,50,39,283.15,-2.391367491876173,Thymine,n-propanol
3793.0,CC1(C)[C@H](C(=O)O)[C@@H]1/C=C(\Cl)C(F)(F)F,CCCO,mol_3793_solute_opt,mol_3793_solvent_opt,50,42,283.15,0.041326866375471,Cyhalothric acid,n-propanol
3794.0,Nc1ccc(O)c(C(=O)O)c1,CCCO,mol_3794_solute_opt,mol_3794_solvent_opt,50,38,293.2,-3.1224634993530263,Mesalazine,n-propanol
3795.0,c1ccc(-c2cc3ccccc3[nH]2)cc1,CCCO,mol_3795_solute_opt,mol_3795_solvent_opt,50,38,296.95,-0.8517511399663263,2-phenyl-1H-indole,n-propanol
3796.0,C[C@]12CC[C@@H]3c4ccc(O)cc4CC[C@H]3[C@@H]1CC[C@@H]2O,CCCO,mol_3796_solute_opt,mol_3796_solvent_opt,50,40,273.15,1.0285174648482434,Estradiol,n-propanol
3797.0,C[C@@H](O[C@H]1OCCN(Cc2n[nH]c(=O)[nH]2)[C@H]1c1ccc(F)cc1)c1cc(C(F)(F)F)cc(C(F)(F)F)c1,CCCO,mol_3797_solute_opt,mol_3797_solvent_opt,50,33,283.75,-1.764565501803734,Aprepitant,n-propanol
3798.0,OC[C@H]1O[C@@H](c2ccc(Cl)c(Cc3ccc(O[C@H]4CCOC4)cc3)c2)[C@H](O)[C@@H](O)[C@@H]1O,CCCO,mol_3798_solute_opt,mol_3798_solvent_opt,50,26,278.15,-4.665760061767347,Empagliflozin,n-propanol
3799.0,Nc1nc(N)nc(-c2ccncc2)n1,CCCO,mol_3799_solute_opt,mol_3799_solvent_opt,50,36,288.15,-2.064841029693407,"2,4-diamino-6-(4-pyridyl)-1,3,5-triazine",n-propanol
3800.0,CC(=O)Oc1ccc(C(c2ccc(OC(C)=O)cc2)c2ccccn2)cc1,CCCO,mol_3800_solute_opt,mol_3800_solvent_opt,50,30,288.15,-2.2068635962449283,Bisacodyl,n-propanol
3801.0,CC(C)(OOC(C)(C)c1ccccc1)c1ccccc1,CCCO,mol_3801_solute_opt,mol_3801_solvent_opt,50,37,274.15,-0.5778677017171574,Dicumyl peroxide (dcp),n-propanol
3802.0,CC(C)C(N)=O,CCCO,mol_3802_solute_opt,mol_3802_solvent_opt,50,35,273.15,-0.3035186659641856,Isobutyramide,n-propanol
3803.0,Cc1ccc(S(=O)(=O)NC(=O)NN2CC3CCCC3C2)cc1,CCCO,mol_3803_solute_opt,mol_3803_solvent_opt,50,43,278.15,-2.050811196933883,Gliclazide,n-propanol
3804.0,CCc1cccc2c3c([nH]c12)C(CC)(CC(=O)O)OCC3,CCCO,mol_3804_solute_opt,mol_3804_solvent_opt,50,31,278.15,-0.3182820126692474,Etodolac,n-propanol
3805.0,O=C(c1ccc(F)cc1)c1ccc(F)cc1,CCCO,mol_3805_solute_opt,mol_3805_solvent_opt,50,34,293.15,-0.8565173827421715,"4,4′-difluorobenzophenone",n-propanol
3806.0,CC1=CC(=O)c2ccccc2C1=O,CCCO,mol_3806_solute_opt,mol_3806_solvent_opt,50,39,278.15,-1.3298636519858669,Vitamin K3,n-propanol
3807.0,O=[N+]([O-])c1cn[nH]c1[N+](=O)[O-],CCCO,mol_3807_solute_opt,mol_3807_solvent_opt,50,38,283.15,0.7967543546747458,"3,4-dinitro-1H-pyrazole",n-propanol
3808.0,CCCOC(=O)c1cc(O)c(O)c(O)c1,CCCO,mol_3808_solute_opt,mol_3808_solvent_opt,50,31,293.15,0.6808750753499948,Propyl gallate,n-propanol
3809.0,COc1ccc2[nH]cc(CCNC(C)=O)c2c1,CCCO,mol_3809_solute_opt,mol_3809_solvent_opt,50,37,278.15,-1.084721348659555,Melatonin,n-propanol
3810.0,O=C1CC[C@@H](C(=O)O)N1,CCCO,mol_3810_solute_opt,mol_3810_solvent_opt,50,44,308.15,-0.6535370860223352,L-pyroglutamic acid,n-propanol
3811.0,O=C1c2ccccc2C(=O)N1O,CCCO,mol_3811_solute_opt,mol_3811_solvent_opt,50,42,278.15,-1.5364242740683345,N-hydroxyphthalimide,n-propanol
3812.0,CC(=O)[C@H]1CC[C@H]2[C@@H]3CCC4=CC(=O)CC[C@]4(C)[C@H]3CC[C@]12C,CCCO,mol_3812_solute_opt,mol_3812_solvent_opt,50,35,278.15,-1.1430524774034474,Progesterone,n-propanol
3813.0,CC(C)C(=O)Nc1ccc([N+](=O)[O-])c(C(F)(F)F)c1,CCCO,mol_3813_solute_opt,mol_3813_solvent_opt,50,31,278.15,-0.1549559531142977,Flutamide,n-propanol
3814.0,Nc1cccc(C(=O)O)c1O,CCCO,mol_3814_solute_opt,mol_3814_solvent_opt,50,35,293.2,-2.343420149243044,3-aminoSalicylic acid,n-propanol
3815.0,O=c1cc(-c2ccccc2)oc2cc(O)cc(O)c12,CCCO,mol_3815_solute_opt,mol_3815_solvent_opt,50,38,293.2,-2.190700027507144,Chrysin,n-propanol
3816.0,CS(=O)(=O)Nc1ccc([N+](=O)[O-])cc1Oc1ccccc1,CCCO,mol_3816_solute_opt,mol_3816_solvent_opt,50,38,278.15,-2.6340874955176887,Nimesulide,n-propanol
3817.0,O=c1ccn([C@@H]2O[C@H](CO)[C@@H](O)[C@H]2O)c(=O)[nH]1,CCCO,mol_3817_solute_opt,mol_3817_solvent_opt,50,35,278.15,-2.198196732668752,Uridine,n-propanol
3818.0,COc1ccc(C(=O)O)cc1,CCCO,mol_3818_solute_opt,mol_3818_solvent_opt,50,36,273.15,-1.2049922484141624,4-methoxybenzoic acid,n-propanol
3819.0,O=C1NC(=O)C(c2ccccc2)(c2ccccc2)N1,CCCO,mol_3819_solute_opt,mol_3819_solvent_opt,50,36,293.2,-1.4526676506343092,Phenytoin,n-propanol
3820.0,N#CCNC(=O)c1cnccc1C(F)(F)F,CCCO,mol_3820_solute_opt,mol_3820_solvent_opt,50,39,283.15,-1.4408554126220003,Flonicamid,n-propanol
3821.0,CC1Cc2ccccc2N1NC(=O)c1ccc(Cl)c(S(N)(=O)=O)c1,CCCO,mol_3821_solute_opt,mol_3821_solvent_opt,50,33,278.15,-1.4109207173608898,Indapamide,n-propanol
3822.0,Nc1nc(NC2CC2)c2ncn([C@H]3C=C[C@@H](CO)C3)c2n1,CCCO,mol_3822_solute_opt,mol_3822_solvent_opt,50,29,278.15,-0.9619113771559028,Abacavir,n-propanol
3823.0,NS(=O)(=O)c1ccccc1C(=O)[O-],CCCO,mol_3823_solute_opt,mol_3823_solvent_opt,50,44,272.15,-1.8391946384737137,Methyl 2-sulfamoylbenzoate,n-propanol
3824.0,C#C[C@]1(O)CC[C@H]2[C@@H]3CCC4=CC(=O)CC[C@@H]4[C@H]3C(=C)C[C@@]21CC,CCCO,mol_3824_solute_opt,mol_3824_solvent_opt,50,35,278.15,-1.162792856560261,Etonogestrel,n-propanol
3825.0,O=C(O)C(O)c1ccccc1,CCCO,mol_3825_solute_opt,mol_3825_solvent_opt,50,39,293.15,0.5117972884469263,"(R,S)-mandelic acid",n-propanol
3826.0,O=[N+]([O-])N=C1NCCN1Cc1ccc(Cl)nc1,CCCO,mol_3826_solute_opt,mol_3826_solvent_opt,50,33,283.15,-2.44499905868774,Imidacloprid,n-propanol
3827.0,O=[N+]([O-])c1cn[nH]c1,CCCO,mol_3827_solute_opt,mol_3827_solvent_opt,50,42,288.15,0.1081617093357975,4-nitropyrazole,n-propanol
3828.0,COc1ccc(C=O)cc1O,CCCO,mol_3828_solute_opt,mol_3828_solvent_opt,50,39,278.15,-0.5894909860435549,Isovanillin,n-propanol
3829.0,CC1(C)O[C@@H]2[C@@H](CO[C@@]3(COS(N)(=O)=O)OC(C)(C)O[C@@H]23)O1,CCCO,mol_3829_solute_opt,mol_3829_solvent_opt,50,48,278.15,-1.009735474959379,Topiramate,n-propanol
3830.0,Cn1c(=O)c2c(ncn2C)n(C)c1=O,CCCO,mol_3830_solute_opt,mol_3830_solvent_opt,50,36,293.2,-1.7058108809055077,Caffeine,n-propanol
3831.0,O=[N+]([O-])c1cc[nH]n1,CCCO,mol_3831_solute_opt,mol_3831_solvent_opt,50,41,283.15,-0.5092556678834387,3-nitro-1H-pyrazole,n-propanol
3832.0,O=C(O)c1cc(=O)[nH]c(=O)[nH]1,CCCO,mol_3832_solute_opt,mol_3832_solvent_opt,50,41,278.15,-3.5169001299770595,Orotic acid,n-propanol
3833.0,Cn1cc[nH]c1=S,CCCO,mol_3833_solute_opt,mol_3833_solvent_opt,50,40,278.15,-0.4390317351119596,Methimazole,n-propanol
3834.0,CC(=O)Nc1ccc(CC(=O)O)cc1,CCCO,mol_3834_solute_opt,mol_3834_solvent_opt,50,38,278.15,-1.1340327888066857,Actarit,n-propanol
3835.0,COc1cccc(C(=O)O)c1OC,CCCO,mol_3835_solute_opt,mol_3835_solvent_opt,50,34,278.15,-0.8971698219140478,"2,3-dimethoxybenzoic acid",n-propanol
3836.0,C=C1CCN([C@H](C)[C@](O)(Cn2cncn2)c2ccc(F)cc2F)CC1,CCCO,mol_3836_solute_opt,mol_3836_solvent_opt,50,29,288.15,0.2629923116827071,Efinaconazole,n-propanol
3837.0,OCCN1CCN(CCCN2c3ccccc3Sc3ccc(Cl)cc32)CC1,CCCO,mol_3837_solute_opt,mol_3837_solvent_opt,50,27,278.15,-0.8978815352108512,Perphenazine,n-propanol
3838.0,O=[N+]([O-])c1cc([N+](=O)[O-])c(-c2nnc(-c3nnc(-c4c([N+](=O)[O-])cc([N+](=O)[O-])cc4[N+](=O)[O-])o3)o2)c([N+](=O)[O-])c1,CCCO,mol_3838_solute_opt,mol_3838_solvent_opt,50,30,293.15,-2.7555292844835053,"5,5′-bis(2,4,6-trinitrophenyl)-2,2′-bis(1,3,4-oxadiazole)",n-propanol
3839.0,NCC(CC(=O)O)c1ccc(Cl)cc1,CCCO,mol_3839_solute_opt,mol_3839_solvent_opt,50,39,293.2,-3.1255547500577245,Baclofen,n-propanol
3840.0,O=C(O)CCC(=O)c1ccc(-c2ccccc2)cc1,CCCO,mol_3840_solute_opt,mol_3840_solvent_opt,50,34,278.15,-2.0793602128852817,Fenbufen,n-propanol
3841.0,O=c1[nH]cc(F)c(=O)[nH]1,CCCO,mol_3841_solute_opt,mol_3841_solvent_opt,50,41,283.15,-1.6046717189071786,5-fluorouracil,n-propanol
3842.0,CC(=O)c1cccc(O)c1,CCCO,mol_3842_solute_opt,mol_3842_solvent_opt,50,39,289.15,0.3816038724210741,m-hydroxyacetophenone (m-HAP),n-propanol
3843.0,O=C(NC[C@H]1CN(c2ccc(N3CCOCC3=O)cc2)C(=O)O1)c1ccc(Cl)s1,CCCO,mol_3843_solute_opt,mol_3843_solvent_opt,50,24,283.15,-3.966792243978358,Rivaroxaban,n-propanol
3844.0,O=C(c1ccccc1)c1ccc(Cl)cc1,CCCO,mol_3844_solute_opt,mol_3844_solvent_opt,50,37,278.15,-0.8187712687603906,4-chlorobenzophenone,n-propanol
3845.0,O=c1c2ccccc2sc2ccc(Cl)cc12,CCCO,mol_3845_solute_opt,mol_3845_solvent_opt,50,39,290.65,-2.0614548022163506,2-chlorothioxanthone (CTX),n-propanol
3846.0,CC(N)=S,CCCO,mol_3846_solute_opt,mol_3846_solvent_opt,50,42,273.15,-0.1405482918252319,Thioacetamide,n-propanol
3847.0,C1=CONN=C1,CCCO,mol_3847_solute_opt,mol_3847_solvent_opt,50,42,293.15,-1.835950900076174,Oxadiazine,n-propanol
3848.0,Brc1cnc2[nH]ccc2c1,CCCO,mol_3848_solute_opt,mol_3848_solvent_opt,50,42,278.15,-0.901265933592261,5-bromo-7-azaindole,n-propanol
3849.0,CCCN(CCc1cccs1)[C@H]1CCc2c(O)cccc2C1,CCCO,mol_3849_solute_opt,mol_3849_solvent_opt,50,40,278.15,-1.120447845589864,Rotigotine,n-propanol
3850.0,NC(=O)c1nc(F)cnc1O,CCCO,mol_3850_solute_opt,mol_3850_solvent_opt,50,43,293.15,-1.598875945844198,Favipiravir,n-propanol
3851.0,O=C1O[C@H](CO)[C@@H](O)[C@H](O)[C@H]1O,CCCO,mol_3851_solute_opt,mol_3851_solvent_opt,50,39,288.15,-2.460817183607757,"1,5-gluconolactone",n-propanol
3852.0,O=C1CCCCCCCCCCC1,CCCO,mol_3852_solute_opt,mol_3852_solvent_opt,50,34,278.15,0.2605060272190809,Cyclododecanone,n-propanol
3853.0,COc1c(C(C)(C)C)cc([N+](=O)[O-])c(C)c1[N+](=O)[O-],CCCO,mol_3853_solute_opt,mol_3853_solvent_opt,50,26,278.15,-1.3008950197058218,"4-tert-butyl-2,6-dinitro-3-methoxytoluene",n-propanol
3854.0,Nc1cccc2ccccc12,CCCO,mol_3854_solute_opt,mol_3854_solvent_opt,50,32,273.15,0.1430521602378482,1-naphthylamine,n-propanol
3855.0,CCCCC(=O)N(Cc1ccc(-c2ccccc2-c2nn[nH]n2)cc1)[C@H](C(=O)O)C(C)C,CCCO,mol_3855_solute_opt,mol_3855_solvent_opt,50,25,278.15,-0.424734264079725,Valsartan,n-propanol
3856.0,CC(=O)N[C@@H](CCC(N)=O)C(=O)O,CCCO,mol_3856_solute_opt,mol_3856_solvent_opt,50,39,283.15,-2.2998074305555325,N-acetyl-L-glutamine,n-propanol
3857.0,Nc1cc(Cl)ccc1[N+](=O)[O-],CCCO,mol_3857_solute_opt,mol_3857_solvent_opt,50,38,283.15,-0.6565655686295625,5-chloro-2-nitroaniline,n-propanol
3858.0,Cc1ccc(CO)cc1,CCCO,mol_3858_solute_opt,mol_3858_solvent_opt,50,37,278.15,0.6621823297717361,p-methylbenzyl alcohol,n-propanol
3859.0,NC(=O)Cc1ccc(O)cc1,CCCO,mol_3859_solute_opt,mol_3859_solvent_opt,50,37,278.15,-1.5337846783607048,4-hydroxyphenylacetamide,n-propanol
3860.0,CC1CCC(=O)C1=O,CCCO,mol_3860_solute_opt,mol_3860_solvent_opt,50,38,278.15,-0.2599768525418787,"3-methyl-1,2-cyclopentanedione",n-propanol
3861.0,O=[N+]([O-])c1nonc1-c1no[n+]([O-])c1-c1nonc1[N+](=O)[O-],CCCO,mol_3861_solute_opt,mol_3861_solvent_opt,50,31,293.15,-1.1914302549840914,"3,4-bis(3-nitrofurazan-4-yl)furoxan",n-propanol
3862.0,CCN(CC)C(=S)SSC(=S)N(CC)CC,CCCO,mol_3862_solute_opt,mol_3862_solvent_opt,50,32,273.15,-1.8602239612671867,Disulfiram,n-propanol
3863.0,CN(CCOc1ccc(CC2SC(=O)NC2=O)cc1)c1ccccn1,CCCO,mol_3863_solute_opt,mol_3863_solvent_opt,50,29,283.15,-2.4281561614169616,Rosiglitazone,n-propanol
3864.0,CCCCCc1ccc2c(c1)C(=O)c1ccccc1C2=O,CCCO,mol_3864_solute_opt,mol_3864_solvent_opt,50,36,288.15,-1.1361530854583854,2-amyl anthraquinone,n-propanol
3865.0,OCc1cn(Cc2ccccc2)nn1,CCCO,mol_3865_solute_opt,mol_3865_solvent_opt,50,37,292.15,-0.2295875459668346,"(1-benzyl-1H-1,2,3-triazole-4-yl)methanol",n-propanol
3866.0,CCC[C@@H]1C[C@@H](C(=O)N[C@@H]([C@H]2O[C@H](SC)[C@H](O)[C@H]3OC(C)(C)O[C@H]32)[C@H](C)Cl)N(C)C1,CCCO,mol_3866_solute_opt,mol_3866_solvent_opt,50,29,273.15,-0.682329165579647,"3,4-o-isopropylidene clindamycin",n-propanol
3867.0,O=C[C@H](O)[C@H](O)[C@H](O)CO,CCCO,mol_3867_solute_opt,mol_3867_solvent_opt,50,36,283.15,-1.155496353094228,D-ribose,n-propanol
3868.0,N[C@@H](CS)C(=O)O,CCCO,mol_3868_solute_opt,mol_3868_solvent_opt,50,40,283.15,-2.8085947062281,L-cysteine,n-propanol
3869.0,O=C(O)c1cc([N+](=O)[O-])cc([N+](=O)[O-])c1O,CCCO,mol_3869_solute_opt,mol_3869_solvent_opt,50,40,278.15,-0.2905727871612106,"3,5-dinitrosalicylic acid",n-propanol
3870.0,CCCSc1nc(N[C@@H]2C[C@H]2c2ccc(F)c(F)c2)c2nnn([C@@H]3C[C@H](OCCO)[C@@H](O)[C@H]3O)c2n1,CCCO,mol_3870_solute_opt,mol_3870_solvent_opt,50,20,273.15,-1.4356839284669165,Ticagrelor,n-propanol
3871.0,c1cnc2[nH]ccc2c1,CCCO,mol_3871_solute_opt,mol_3871_solvent_opt,50,40,278.15,0.5036748635524261,7-azaindole,n-propanol
3872.0,O=C1N=c2ccccc2=N1,CCCO,mol_3872_solute_opt,mol_3872_solvent_opt,50,43,283.15,-1.5237334086270184,2-benzimidazolone,n-propanol
3873.0,CC(C)(c1ccc(O)cc1)c1ccc(O)cc1,CCCO,mol_3873_solute_opt,mol_3873_solvent_opt,50,38,273.15,0.463402334325192,Bisphenol A,n-propanol
3874.0,O=C(Nc1ccccc1)c1ccccc1,CCCO,mol_3874_solute_opt,mol_3874_solvent_opt,50,29,274.15,-1.4918489847237135,Benzanilide,n-propanol
3875.0,O=C(O)Cc1ccc([N+](=O)[O-])cc1,CCCO,mol_3875_solute_opt,mol_3875_solvent_opt,50,38,283.15,-0.1315591302565427,4-nitrophenylacetic acid,n-propanol
3876.0,NS(=O)(=O)Cc1noc2ccccc12,CCCO,mol_3876_solute_opt,mol_3876_solvent_opt,50,47,273.15,-2.252022240167969,Zonisamide,n-propanol
3877.0,CC(=O)Oc1ccccc1C(=O)Nc1ncc([N+](=O)[O-])s1,CCCO,mol_3877_solute_opt,mol_3877_solvent_opt,50,37,273.15,-2.7250451709622445,Nitazoxanide,n-propanol
3878.0,CC1=NN(c2ccccc2)C(=O)C1,CCCO,mol_3878_solute_opt,mol_3878_solvent_opt,50,39,283.15,-0.6901990720256167,Edaravone,n-propanol
3879.0,Nc1cccc(Cl)c1C(=O)O,CCCO,mol_3879_solute_opt,mol_3879_solvent_opt,50,38,278.15,-0.5505366283046647,2-amino-6-chlorobenzoic acid,n-propanol
3880.0,OCc1ccccc1O[C@@H]1OC(CO)[C@@H](O)[C@@H](O)C1O,CCCO,mol_3880_solute_opt,mol_3880_solvent_opt,50,33,283.15,-2.602489751737834,D(−)-salicin,n-propanol
3881.0,OC[C@H]1O[C@@H](Oc2ccc(O)cc2)[C@H](O)[C@@H](O)[C@@H]1O,CCCO,mol_3881_solute_opt,mol_3881_solvent_opt,50,31,283.15,-1.9730258366379243,β-Arbutin,n-propanol
3882.0,O=Cc1cc(Br)c(O)c(Br)c1,CCCO,mol_3882_solute_opt,mol_3882_solvent_opt,50,39,278.15,-1.3353548916409037,"3,5-dibromo-4-hydroxybenzaldehyde",n-propanol
3883.0,COc1cc2nc(Cl)nc(N)c2cc1OC,CCCO,mol_3883_solute_opt,mol_3883_solvent_opt,50,32,273.15,-2.5449550205626843,"2-chloro-4-amino-6,7-dimethoxyquinazoline",n-propanol
3884.0,O=C(O)Cc1ccccc1[N+](=O)[O-],CCCO,mol_3884_solute_opt,mol_3884_solvent_opt,50,41,283.15,-0.6027547782577817,2-nitrophenylacetic acid,n-propanol
3885.0,C=CC(=O)NC(C)(C)CS(=O)(=O)O,CCCO,mol_3885_solute_opt,mol_3885_solvent_opt,50,47,283.15,-1.2669612645457078,2-acrylamide-2-methylpropanesulfonic acid,n-propanol
3886.0,Nc1ccc(Cc2ccc(N)c(Cl)c2)cc1Cl,CCCO,mol_3886_solute_opt,mol_3886_solvent_opt,50,37,283.15,-0.4487963734745802,"4,4′-methylene-bis-(2-chloroaniline)",n-propanol
3887.0,O=Cc1cc(C=O)cc(C=O)c1,CCCO,mol_3887_solute_opt,mol_3887_solvent_opt,50,39,283.15,-1.91038365687966,"1,3,5-triformylbenzene",n-propanol
3888.0,O=C(O)[C@@H]1C[C@@H](O)CN1,CCCO,mol_3888_solute_opt,mol_3888_solvent_opt,50,40,283.15,-3.049769893395513,L-hydroxyproline,n-propanol
3889.0,OCC(O)COc1ccc(Cl)cc1,CCCO,mol_3889_solute_opt,mol_3889_solvent_opt,50,38,288.15,-0.1638089900227937,Chlorphenesin,n-propanol
3890.0,CCn1c2ccccc2c2cc(-n3nncc3-c3ccccc3)ccc21,CCCO,mol_3890_solute_opt,mol_3890_solvent_opt,50,26,283.0,-2.123960468205934,MBQ-167,n-propanol
3891.0,NC(=O)[C@@H]1CCCN1,CCCO,mol_3891_solute_opt,mol_3891_solvent_opt,50,32,278.15,-0.1772657335614482,L-prolinamide,n-propanol
3892.0,O=C(O)c1cccc(O)c1O,CCCO,mol_3892_solute_opt,mol_3892_solvent_opt,50,41,278.15,-0.0149405115099032,"2,3-dihydroxybenzoic acid",n-propanol
3893.0,O=C(Nc1ccccc1)c1ccccc1O,CCCO,mol_3893_solute_opt,mol_3893_solvent_opt,50,34,283.15,-0.736194882704879,Salicylanilide,n-propanol
3894.0,CC(=O)N1CCC[C@H]1C(=O)O,CCCO,mol_3894_solute_opt,mol_3894_solvent_opt,50,38,283.15,0.1572605079564032,N-acetyl-L-proline,n-propanol
3895.0,O=C(O)c1ccc(CO)cc1,CCCO,mol_3895_solute_opt,mol_3895_solvent_opt,50,37,283.15,-0.4853049998281004,4-(hydroxymethyl) benzoic acid,n-propanol