pair_id,SMILES_Solute,SMILES_Solvent,Solute_name,Solvent_name,Total_conformers,Filtered_conformers,Temperature_K,LogS,Compound_Name,Solvent
5875.0,Cc1ccc(S(=O)(=O)NC(=O)NN2CC3CCCC3C2)cc1,CN(C)C=O,mol_5875_solute_opt,mol_5875_solvent_opt,50,37,278.15,-0.0980452253589436,Gliclazide,DMF
5876.0,O=c1cc(-c2ccccc2)oc2cc(O)cc(O)c12,CN(C)C=O,mol_5876_solute_opt,mol_5876_solvent_opt,50,40,293.2,-0.8814931554222006,Chrysin,DMF
5877.0,NS(=O)(=O)Cc1noc2ccccc12,CN(C)C=O,mol_5877_solute_opt,mol_5877_solvent_opt,50,40,278.15,-0.4017160972210932,Zonisamide,DMF
5878.0,CC(C)C(=O)Nc1ccc([N+](=O)[O-])c(C(F)(F)F)c1,CN(C)C=O,mol_5878_solute_opt,mol_5878_solvent_opt,50,26,278.15,0.910952527691951,Flutamide,DMF
5879.0,O=c1ccn([C@@H]2O[C@H](CO)[C@@H](O)[C@H]2O)c(=O)[nH]1,CN(C)C=O,mol_5879_solute_opt,mol_5879_solvent_opt,50,38,278.15,0.3948527861109859,Uridine,DMF
5880.0,C#C[C@]1(O)CC[C@H]2[C@@H]3CCC4=CC(=O)CC[C@@H]4[C@H]3C(=C)C[C@@]21CC,CN(C)C=O,mol_5880_solute_opt,mol_5880_solvent_opt,50,26,278.15,0.0572881052539495,Etonogestrel,DMF
5881.0,NC(=O)N1c2ccccc2CC(=O)c2ccccc21,CN(C)C=O,mol_5881_solute_opt,mol_5881_solvent_opt,50,33,288.15,-0.5702906040624013,Oxcarbazepine,DMF
5882.0,O=C(O)c1cc(=O)[nH]c(=O)[nH]1,CN(C)C=O,mol_5882_solute_opt,mol_5882_solvent_opt,50,44,278.15,-1.495254727747794,Orotic acid,DMF
5883.0,C=C1CCN([C@H](C)[C@](O)(Cn2cncn2)c2ccc(F)cc2F)CC1,CN(C)C=O,mol_5883_solute_opt,mol_5883_solvent_opt,50,31,288.15,0.7074728911334841,Efinaconazole,DMF
5884.0,OCCN1CCN(CCCN2c3ccccc3Sc3ccc(Cl)cc32)CC1,CN(C)C=O,mol_5884_solute_opt,mol_5884_solvent_opt,50,28,278.15,-0.4909954317003973,Perphenazine,DMF
5885.0,O=c1[nH]cc(F)c(=O)[nH]1,CN(C)C=O,mol_5885_solute_opt,mol_5885_solvent_opt,50,44,283.15,-1.3439996359363693,5-fluorouracil,DMF
5886.0,Cc1c(-c2ccccc2)oc2c(C(=O)O)cccc2c1=O,CN(C)C=O,mol_5886_solute_opt,mol_5886_solvent_opt,50,37,278.15,-0.7651233192692085,3-methylflavone-8-carboxylic acid,DMF
5887.0,NC(=O)c1cccnc1Cl,CN(C)C=O,mol_5887_solute_opt,mol_5887_solvent_opt,50,43,278.15,0.1563882603232131,2-chloronicotinamide,DMF
5888.0,CC(=O)c1c(C)c2cnc(Nc3ccc(N4CCNCC4)cn3)nc2n(C2CCCC2)c1=O,CN(C)C=O,mol_5888_solute_opt,mol_5888_solvent_opt,50,27,293.15,-3.096400360633399,Palbociclib,DMF
5889.0,C1=CONN=C1,CN(C)C=O,mol_5889_solute_opt,mol_5889_solvent_opt,50,45,293.15,0.1327944775013313,Oxadiazine,DMF
5890.0,O=[N+]([O-])c1cc([N+](=O)[O-])c(Nc2nc(Nc3c([N+](=O)[O-])cc([N+](=O)[O-])cc3[N+](=O)[O-])c([N+](=O)[O-])cc2[N+](=O)[O-])c([N+](=O)[O-])c1,CN(C)C=O,mol_5890_solute_opt,mol_5890_solvent_opt,50,34,293.1,-0.9752139350207168,"2,6-bis(picrylamino)-3,5-dinitropyridine",DMF
5891.0,CN1CCC(N(Cc2cccs2)c2ccccc2)CC1,CN(C)C=O,mol_5891_solute_opt,mol_5891_solvent_opt,50,27,278.15,-1.028488543877397,Thenalidine,DMF
5892.0,NC(=O)c1nc(F)cnc1O,CN(C)C=O,mol_5892_solute_opt,mol_5892_solvent_opt,50,43,293.15,-0.8441233819105526,Favipiravir,DMF
5893.0,COc1c(C(C)(C)C)cc([N+](=O)[O-])c(C)c1[N+](=O)[O-],CN(C)C=O,mol_5893_solute_opt,mol_5893_solvent_opt,50,36,278.15,0.101407994128053,"4-tert-butyl-2,6-dinitro-3-methoxytoluene",DMF
5894.0,Cc1c(C(=O)O)cccc1[N+](=O)[O-],CN(C)C=O,mol_5894_solute_opt,mol_5894_solvent_opt,50,39,278.15,0.3569590156015408,2-methyl-3-nitrobenzoic acid,DMF
5895.0,O=C(O)CCCCC(=O)O,CN(C)C=O,mol_5895_solute_opt,mol_5895_solvent_opt,50,38,290.8,0.6177623290312056,Adipic acid,DMF
5896.0,COC(=O)c1ccc2cc(C(=O)OC)ccc2c1,CN(C)C=O,mol_5896_solute_opt,mol_5896_solvent_opt,50,35,303.31,-1.4870127318495867,"Dimethyl-2,6-naphthalene dicarboxylate",DMF
5897.0,O=C(O)c1cc([N+](=O)[O-])cc([N+](=O)[O-])c1O,CN(C)C=O,mol_5897_solute_opt,mol_5897_solvent_opt,50,43,278.15,0.0896036507106043,"3,5-dinitrosalicylic acid",DMF
5898.0,CC(C)(c1ccc(O)cc1)c1ccc(O)cc1,CN(C)C=O,mol_5898_solute_opt,mol_5898_solvent_opt,50,35,273.15,0.7509689182506263,Bisphenol A,DMF
5899.0,O=C(Nc1ccccc1)c1ccccc1,CN(C)C=O,mol_5899_solute_opt,mol_5899_solvent_opt,50,42,274.15,0.0900235086379647,Benzanilide,DMF
5900.0,O=C(O)Cc1ccc([N+](=O)[O-])cc1,CN(C)C=O,mol_5900_solute_opt,mol_5900_solvent_opt,50,40,283.15,0.401719802295883,4-nitrophenylacetic acid,DMF
5901.0,O=c1cc(CBr)c2ccccc2[nH]1,CN(C)C=O,mol_5901_solute_opt,mol_5901_solvent_opt,50,39,273.15,-1.5466035824413882,4-(bromomethyl)-2(1H)-quinolinone,DMF
5902.0,O=C(NCCO[N+](=O)[O-])c1cccnc1,CN(C)C=O,mol_5902_solute_opt,mol_5902_solvent_opt,50,40,278.15,-0.7455191767074525,Nicorandil,DMF
5903.0,O=Cc1cc(Br)c(O)c(Br)c1,CN(C)C=O,mol_5903_solute_opt,mol_5903_solvent_opt,50,45,278.15,-0.9707075000352566,"3,5-dibromo-4-hydroxybenzaldehyde",DMF
5904.0,Nc1cc(-c2ccncc2)c[nH]c1=O,CN(C)C=O,mol_5904_solute_opt,mol_5904_solvent_opt,50,48,278.15,-3.0203523498750164,Amrinone,DMF
5905.0,Cc1[nH]c(=O)c(C#N)cc1-c1ccncc1,CN(C)C=O,mol_5905_solute_opt,mol_5905_solvent_opt,50,39,278.15,-2.9799939525201844,Milrinone,DMF
5906.0,COc1cc2nc(Cl)nc(N)c2cc1OC,CN(C)C=O,mol_5906_solute_opt,mol_5906_solvent_opt,50,36,273.15,-1.4209474191135836,"2-chloro-4-amino-6,7-dimethoxyquinazoline",DMF
5907.0,O=C(O)Cc1ccccc1[N+](=O)[O-],CN(C)C=O,mol_5907_solute_opt,mol_5907_solvent_opt,50,38,283.15,0.4588564293736927,2-nitrophenylacetic acid,DMF
5908.0,O=C1CC[C@@H](C(=O)N2CSC[C@H]2C(=O)O)N1,CN(C)C=O,mol_5908_solute_opt,mol_5908_solvent_opt,50,39,278.15,-1.1491125337223869,Pidotimod,DMF
5910.0,CCS(=O)(=O)c1cccnc1S(=O)(=O)NC(=O)Nc1nc(OC)cc(OC)n1,CN(C)C=O,mol_5910_solute_opt,mol_5910_solvent_opt,50,39,278.15,-3.12851084277633,Rimsulfuron,DMF
5911.0,COC(=O)c1c(Cl)nn(C)c1S(=O)(=O)NC(=O)Nc1nc(OC)cc(OC)n1,CN(C)C=O,mol_5911_solute_opt,mol_5911_solvent_opt,50,35,278.15,-1.994540672968832,Halosulfuron-methyl,DMF
5912.0,Nc1ccc(Cc2ccc(N)c(Cl)c2)cc1Cl,CN(C)C=O,mol_5912_solute_opt,mol_5912_solvent_opt,50,31,283.15,0.7630760913695108,"4,4′-methylene-bis-(2-chloroaniline)",DMF
5913.0,CN1COCN(Cc2cnc(Cl)s2)C1=N[N+](=O)[O-],CN(C)C=O,mol_5913_solute_opt,mol_5913_solvent_opt,50,38,278.15,-0.0828599719160546,Thiamethoxam,DMF
5914.0,CC(=O)O[C@]1(C(C)=O)CC[C@H]2[C@@H]3C=C(Cl)C4=CC(=O)[C@@H]5C[C@@H]5[C@]4(C)[C@H]3CC[C@@]21C,CN(C)C=O,mol_5914_solute_opt,mol_5914_solvent_opt,50,34,273.15,-2.2354509078437026,Cyproterone acetate,DMF
5915.0,NC(=O)[C@@H]1CCCN1,CN(C)C=O,mol_5915_solute_opt,mol_5915_solvent_opt,50,48,278.15,-0.2361922017239184,L-prolinamide,DMF
5916.0,CCOc1ccccc1C(N)=O,CN(C)C=O,mol_5916_solute_opt,mol_5916_solvent_opt,50,39,288.15,-0.1772186494955442,Ethenzamide,DMF
5917.0,CC(=O)Nc1ccccc1[N+](=O)[O-],CN(C)C=O,mol_5917_solute_opt,mol_5917_solvent_opt,50,42,278.15,0.4213244248950699,o-nitroacetanilide,DMF
5918.0,Nc1cccc(S(=O)(=O)c2cccc(N)c2)c1,CN(C)C=O,mol_5918_solute_opt,mol_5918_solvent_opt,50,30,283.15,0.0961387761284314,"3,3′-diaminodiphenyl sulfone",DMF
5919.0,CCCc1cc(=O)[nH]c(=S)[nH]1,CN(C)C=O,mol_5919_solute_opt,mol_5919_solvent_opt,50,35,278.15,0.1099634835538485,Propylthiouracil,DMF
5920.0,Nc1nc(=O)[nH]cc1F,CN(C)C=O,mol_5920_solute_opt,mol_5920_solvent_opt,50,42,283.15,-1.828353852115236,5-fluorocytosine,DMF
5921.0,Cc1ccccc1C(=O)O,CN(C)C=O,mol_5921_solute_opt,mol_5921_solvent_opt,50,44,291.15,0.8036614959335799,o-methylbenzoic acid,DMF
5922.0,O=C(O)c1ccccc1C(=O)O,CN(C)C=O,mol_5922_solute_opt,mol_5922_solvent_opt,50,45,304.15,0.9303079921536422,o-phthalic acid,DMF
5923.0,O=C(O)c1cccc([N+](=O)[O-])c1O,CN(C)C=O,mol_5923_solute_opt,mol_5923_solvent_opt,50,42,278.15,-0.019915753066647,3-nitrosalicylic acid,DMF
5924.0,COC(=O)c1sccc1S(=O)(=O)NC(=O)Nc1nc(C)nc(OC)n1,CN(C)C=O,mol_5924_solute_opt,mol_5924_solvent_opt,50,41,278.15,-2.008869244508601,Thifensulfuron methyl,DMF
5925.0,CC(C)(Oc1ccc(C2CC2(Cl)Cl)cc1)C(=O)O,CN(C)C=O,mol_5925_solute_opt,mol_5925_solvent_opt,50,37,278.15,0.5643627386641277,Ciprofibrate,DMF
5926.0,CNc1nc(C)nc(OC)n1,CN(C)C=O,mol_5926_solute_opt,mol_5926_solvent_opt,50,38,278.15,0.5161872080756087,"2-methyl-4-methylamino-6-methoxy-1,3,5-triazine",DMF
5927.0,COCCOc1ccccc1S(=O)(=O)NC(=O)Nc1nc(OC)nc(OC)n1,CN(C)C=O,mol_5927_solute_opt,mol_5927_solvent_opt,50,33,278.15,-0.5339301509023195,Cinosulfuron,DMF
5928.0,O=C(O)c1ccc(C(=O)O)cc1,CN(C)C=O,mol_5928_solute_opt,mol_5928_solvent_opt,50,42,313.15,-0.3694588455147319,Terephthalic acid,DMF
5929.0,Cn1c([N+](=O)[O-])cnc1N1CCN(S(C)(=O)=O)C1=O,CN(C)C=O,mol_5929_solute_opt,mol_5929_solvent_opt,50,38,293.2,-0.2599851975770027,Satranidazole,DMF
5930.0,O=C(NC(=O)c1c(F)cccc1F)Nc1ccc(Oc2ccc(C(F)(F)F)cc2Cl)cc1F,CN(C)C=O,mol_5930_solute_opt,mol_5930_solvent_opt,50,34,278.15,0.3030678866047528,Flufenoxuron,DMF
5931.0,COc1cc(C=O)cc(OC)c1OC,CN(C)C=O,mol_5931_solute_opt,mol_5931_solvent_opt,50,35,278.15,0.3105862350204839,"3,4,5-trimethoxybenzaldehyde",DMF
5932.0,O=C(O)CSc1ccc2ccccc2c1,CN(C)C=O,mol_5932_solute_opt,mol_5932_solvent_opt,50,39,278.15,-1.1586760528672906,(2-naphthylthio)acetic acid,DMF
5933.0,O=C(NC(=O)c1c(F)cccc1F)Nc1cc(Cl)c(F)c(Cl)c1F,CN(C)C=O,mol_5933_solute_opt,mol_5933_solvent_opt,50,39,278.15,0.4422370521979671,Teflubenzuron,DMF
5934.0,CCOc1ccc(NC(C)=O)cc1,CN(C)C=O,mol_5934_solute_opt,mol_5934_solvent_opt,50,37,283.15,0.1017251609757518,Phenacetin,DMF
5935.0,CC(=O)Nc1ccc([N+](=O)[O-])cc1,CN(C)C=O,mol_5935_solute_opt,mol_5935_solvent_opt,50,38,278.15,0.1766220483977734,p-Nitroacetanilide,DMF
5936.0,CC(=O)OC(OC(C)=O)c1ccc([N+](=O)[O-])o1,CN(C)C=O,mol_5936_solute_opt,mol_5936_solvent_opt,50,34,278.15,0.4022982090959891,2-(diacetoxymethyl)-5-nitrofuran,DMF
5937.0,NC(N)=NCCC[C@H](NC(=O)OCc1ccccc1)C(=O)O,CN(C)C=O,mol_5937_solute_opt,mol_5937_solvent_opt,50,34,283.15,-1.665691541207646,Nα-carbobenzyloxy-L-arginine,DMF
5938.0,O=C(O)c1cc([N+](=O)[O-])ccc1O,CN(C)C=O,mol_5938_solute_opt,mol_5938_solvent_opt,50,45,278.15,0.029985207552771,5-nitroSalicylic acid,DMF
5939.0,Nc1nccnc1Cl,CN(C)C=O,mol_5939_solute_opt,mol_5939_solvent_opt,50,45,278.15,-0.913513243159646,2-amino-3-chloropyrazine,DMF
5940.0,NCC(CC(=O)O)c1ccc(Cl)cc1,CN(C)C=O,mol_5940_solute_opt,mol_5940_solvent_opt,50,38,273.15,0.167037120002859,Baclofen,DMF
5941.0,NC(=O)Nc1ccccc1,CN(C)C=O,mol_5941_solute_opt,mol_5941_solvent_opt,50,41,283.15,0.5304100025930703,1-phenylurea,DMF
5942.0,Nc1ccccn1,CN(C)C=O,mol_5942_solute_opt,mol_5942_solvent_opt,50,43,273.15,1.0132607212533282,2-aminopyridine,DMF
5943.0,O=[N+]([O-])c1cc([N+](=O)[O-])c(Cl)cc1Cl,CN(C)C=O,mol_5943_solute_opt,mol_5943_solvent_opt,50,46,298.15,0.7148324640886279,"1,5-dichloro-2,4-dinitrobenzene",DMF
5944.0,CCCc1nc(C(C)(C)O)c(C(=O)OCC)n1Cc1ccc(-c2ccccc2-c2nnnn2C(c2ccccc2)(c2ccccc2)c2ccccc2)cc1,CN(C)C=O,mol_5944_solute_opt,mol_5944_solvent_opt,50,21,278.15,-1.8106854568128503,N-trityl olmesartan ethyl ester,DMF
5945.0,Nc1cccc2ccncc12,CN(C)C=O,mol_5945_solute_opt,mol_5945_solvent_opt,50,40,278.15,-1.1259998757486174,8-isoquinolinamine,DMF
5946.0,O=c1cnc(Br)c[nH]1,CN(C)C=O,mol_5946_solute_opt,mol_5946_solvent_opt,50,44,278.15,-1.117266949986207,2-bromo-5-hydroxypyrazine,DMF
5947.0,Nc1cnc(Br)cn1,CN(C)C=O,mol_5947_solute_opt,mol_5947_solvent_opt,50,45,278.15,-0.9476665706874936,2-amino-5-bromopyrazine,DMF
5948.0,O=[N+]([O-])n1cccn1,CN(C)C=O,mol_5948_solute_opt,mol_5948_solvent_opt,50,46,293.15,0.5380683404988407,N-nitropyrazole,DMF
5949.0,c1ccc(-c2ccc(C(c3ccccc3)n3ccnc3)cc2)cc1,CN(C)C=O,mol_5949_solute_opt,mol_5949_solvent_opt,50,33,283.17,-0.7022558201139274,Bifonazole,DMF
5950.0,Nc1ccc(Br)nn1,CN(C)C=O,mol_5950_solute_opt,mol_5950_solvent_opt,50,44,278.15,-0.7756434367137595,3-amino-6-bromopyridazine,DMF
5951.0,Cc1ccc2cc(Br)ccc2n1,CN(C)C=O,mol_5951_solute_opt,mol_5951_solvent_opt,50,40,278.15,-1.110493092466956,6-bromo-2-methylquinoline,DMF
5952.0,NC(=O)c1ccncc1,CN(C)C=O,mol_5952_solute_opt,mol_5952_solvent_opt,50,44,278.15,0.2943017395572765,Isonicotinamide,DMF
5953.0,O=S1(=O)OC(c2ccc(O)cc2)(c2ccc(O)cc2)c2ccccc21,CN(C)C=O,mol_5953_solute_opt,mol_5953_solvent_opt,50,38,278.15,-0.9811931418423706,Phenol red,DMF
5954.0,COC(=O)c1ccnc(N)c1,CN(C)C=O,mol_5954_solute_opt,mol_5954_solvent_opt,50,38,278.15,-1.016141792259334,Methyl 2-aminopyridine-4-carboxylate,DMF
5955.0,N#CN=C(N)N,CN(C)C=O,mol_5955_solute_opt,mol_5955_solvent_opt,50,46,283.15,0.6154213602827988,Dicyandiamide,DMF
5956.0,O=C(O)CNC(=O)C(=O)NCC(=O)O,CN(C)C=O,mol_5956_solute_opt,mol_5956_solvent_opt,50,39,293.15,-0.408244801145646,"N,N′-oxalyldiglycine",DMF
5957.0,Nc1ncnc2c1ncn2CCOCP(=O)(O)O,CN(C)C=O,mol_5957_solute_opt,mol_5957_solvent_opt,50,38,278.15,-2.797284437002672,Adefovir,DMF
5958.0,NC(=O)CS(=O)C(c1ccccc1)c1ccccc1,CN(C)C=O,mol_5958_solute_opt,mol_5958_solvent_opt,50,33,280.7,-0.1143949966403831,Modafinil,DMF
5959.0,Cc1c(Cl)cccc1Nc1ccccc1C(=O)O,CN(C)C=O,mol_5959_solute_opt,mol_5959_solvent_opt,50,40,283.15,-1.0649513497657337,Tolfenamic acid,DMF
5960.0,CC(C)(N)C(=O)O,CN(C)C=O,mol_5960_solute_opt,mol_5960_solvent_opt,50,45,283.15,-3.11885473870222,α-Aminoisobutyric Acid,DMF
5961.0,O=[N+]([O-])c1ccc(Oc2ccc([N+](=O)[O-])cc2)cc1,CN(C)C=O,mol_5961_solute_opt,mol_5961_solvent_opt,50,38,283.15,-0.1400392030030305,"4,4′-dinitrodiphenyl ether",DMF
5962.0,N#Cc1c(Cl)c(Cl)c(Cl)c(Cl)c1C#N,CN(C)C=O,mol_5962_solute_opt,mol_5962_solvent_opt,50,47,288.15,-0.8835305187769557,Chlorothalonil,DMF
5963.0,C1=Cc2nc1c(-c1ccccc1)c1ccc([nH]1)c(-c1ccccc1)c1nc(c(-c3ccccc3)c3ccc([nH]3)c2-c2ccccc2)C=C1,CN(C)C=O,mol_5963_solute_opt,mol_5963_solvent_opt,50,15,303.2,-2.9016920017949976,"5,10,15,20-tetraphenylporphyrin (TPP)",DMF
5964.0,Clc1ccc(-c2c3nc(c(-c4ccc(Cl)cc4)c4ccc([nH]4)c(-c4ccc(Cl)cc4)c4nc(c(-c5ccc(Cl)cc5)c5ccc2[nH]5)C=C4)C=C3)cc1,CN(C)C=O,mol_5964_solute_opt,mol_5964_solvent_opt,50,20,303.2,-3.4695688162762512,"5,10,15,20-tetra(p-chlorophenyl)porphyrin (p-ClTPP)",DMF
5965.0,C=CC(=O)NC(C)(C)C,CN(C)C=O,mol_5965_solute_opt,mol_5965_solvent_opt,50,43,288.15,-0.5592357592346822,N-tert-butylacrylamide,DMF
5966.0,OC[C@@H](O)[C@@H](O[C@H]1O[C@H](CO)[C@@H](O)[C@H](O)[C@H]1O)[C@H](O)[C@@H](O)CO,CN(C)C=O,mol_5966_solute_opt,mol_5966_solvent_opt,50,35,298.15,-1.0039834307827042,Maltitol,DMF
5967.0,O=C1OC[C@H]2[C@@H]1N(Cc1ccccc1)C(=O)N2Cc1ccccc1,CN(C)C=O,mol_5967_solute_opt,mol_5967_solvent_opt,50,36,293.15,0.3609810408709785,(+)-biotin intermediate lactone,DMF
5968.0,O=C1NC(=O)c2cc([N+](=O)[O-])ccc21,CN(C)C=O,mol_5968_solute_opt,mol_5968_solvent_opt,50,43,273.15,-0.3094916924996234,4-nitrophthalimide,DMF
5969.0,COC(=O)c1c(C)cc(O)c(C)c1O,CN(C)C=O,mol_5969_solute_opt,mol_5969_solvent_opt,50,39,283.15,1.005016291007076,Veramoss,DMF
5970.0,O=[N+]([O-])N1C2C3N([N+](=O)[O-])C1C1N([N+](=O)[O-])C(C(N1[N+](=O)[O-])N3[N+](=O)[O-])N2[N+](=O)[O-],CN(C)C=O,mol_5970_solute_opt,mol_5970_solvent_opt,50,39,283.15,0.1213626164171495,ε-CL-20,DMF
5971.0,CCOC(=O)N1CCC(=C2c3ccc(Cl)cc3CCc3cccnc32)CC1,CN(C)C=O,mol_5971_solute_opt,mol_5971_solvent_opt,50,38,283.11,-0.553183440079457,Loratadine,DMF
5972.0,CCCCC1C(=O)N(c2ccccc2)N(c2ccccc2)C1=O,CN(C)C=O,mol_5972_solute_opt,mol_5972_solvent_opt,50,36,283.13,0.2281171278094683,Phenylbutazone,DMF
5973.0,On1nnc2ccccc21,CN(C)C=O,mol_5973_solute_opt,mol_5973_solvent_opt,50,43,278.15,-0.2465136102519059,1-hydroxybenzotriazole,DMF
5974.0,CS(=O)(=O)c1ccc([C@@H](O)[C@@H](CO)NC(=O)C(Cl)Cl)cc1,CN(C)C=O,mol_5974_solute_opt,mol_5974_solvent_opt,50,35,278.15,-0.9121776210349184,Thiamphenicol,DMF
5975.0,CN1CC(O)c2cc(N=NC(N)=O)c(O)cc21,CN(C)C=O,mol_5975_solute_opt,mol_5975_solvent_opt,50,30,278.15,-1.9020775059690247,Carbazochrome,DMF
5976.0,COCC(=O)Nc1c(I)c(C(=O)NCC(O)CO)c(I)c(C(=O)N(C)CC(O)CO)c1I,CN(C)C=O,mol_5976_solute_opt,mol_5976_solvent_opt,50,30,273.15,-1.3104869266441856,Iopromide,DMF
5977.0,O=c1nc[nH]c2[nH]ncc12,CN(C)C=O,mol_5977_solute_opt,mol_5977_solvent_opt,50,46,278.15,-1.5302627731079437,Allopurinol,DMF
5978.0,COc1cc(N)nc(OC)n1,CN(C)C=O,mol_5978_solute_opt,mol_5978_solvent_opt,50,39,283.15,-0.1170429221331488,"4-amino-2,6-dimethoxypyrimidine",DMF
5979.0,O=C(OCC1c2ccccc2-c2ccccc21)ON1C(=O)CCC1=O,CN(C)C=O,mol_5979_solute_opt,mol_5979_solvent_opt,50,34,283.15,-1.3130857891940486,N-(9-fluorenylmethoxycarbonyloxy)succinimide,DMF
5980.0,NNC(=O)c1ccncc1,CN(C)C=O,mol_5980_solute_opt,mol_5980_solvent_opt,50,42,283.15,-0.5105133051922972,Isoniazid,DMF
5981.0,COc1c(N2CCNC(C)C2)c(F)cc2c(=O)c(C(=O)O)cn(C3CC3)c12,CN(C)C=O,mol_5981_solute_opt,mol_5981_solvent_opt,50,26,273.15,-1.4641946811178437,Gatifloxacin,DMF
5982.0,Nc1nc(Cl)c2[nH]cnc2n1,CN(C)C=O,mol_5982_solute_opt,mol_5982_solvent_opt,50,43,278.15,-1.5252239481843386,2-amino-6-chloropurine,DMF
5983.0,C[C@@H](O)[C@H]1C(=O)N2C(C(=O)[O-])=C(SC3Cn4cnc[n+]4C3)[C@H](C)[C@H]12,CN(C)C=O,mol_5983_solute_opt,mol_5983_solvent_opt,50,31,283.15,-3.1187798624543634,Biapenem,DMF
5984.0,CC(C)N1C(=O)N(c2ccccc2)CSC1=NC(C)(C)C,CN(C)C=O,mol_5984_solute_opt,mol_5984_solvent_opt,50,31,273.15,-0.3781440757714108,Buprofezin,DMF
5985.0,COC(=O)Nc1nc2ccc(C(=O)c3ccc(F)cc3)cc2[nH]1,CN(C)C=O,mol_5985_solute_opt,mol_5985_solvent_opt,50,32,283.15,-2.124511494179903,Flubendazole,DMF
5986.0,CCOC(=O)[C@@H](C)Oc1ccc(Oc2cnc3cc(Cl)ccc3n2)cc1,CN(C)C=O,mol_5986_solute_opt,mol_5986_solvent_opt,50,35,273.15,-0.9696762161833448,Quizalofop-p-ethyl,DMF
5987.0,N#CCC(N)=O,CN(C)C=O,mol_5987_solute_opt,mol_5987_solvent_opt,50,44,273.15,0.6530004097579277,2-cyanoacetamide,DMF
5988.0,Cc1[nH]nc2cc([N+](=O)[O-])ccc12,CN(C)C=O,mol_5988_solute_opt,mol_5988_solvent_opt,50,40,278.15,0.3631343481967444,3-methyl-6-nitroindazole,DMF
5989.0,O=C(O)Cc1c[nH]c2ccccc12,CN(C)C=O,mol_5989_solute_opt,mol_5989_solvent_opt,50,41,278.15,-3.405310581789613,Indole-3-acetic acid,DMF
5990.0,CN(C)/C=C/C(=O)c1cccnc1,CN(C)C=O,mol_5990_solute_opt,mol_5990_solvent_opt,50,37,278.15,0.1132727485108609,(2E)-1-(3-pyridyl)-3-(dimethylamino)-2-propen-1-one,DMF
5991.0,NC(=O)c1ccc([N+](=O)[O-])cc1,CN(C)C=O,mol_5991_solute_opt,mol_5991_solvent_opt,50,41,283.15,-0.2982202855082649,p-Nitrobenzamide,DMF
5992.0,CC1=NNC(=O)N(/N=C/c2cccnc2)C1,CN(C)C=O,mol_5992_solute_opt,mol_5992_solvent_opt,50,29,278.15,-1.386990873608239,Pymetrozine,DMF
5993.0,N[C@@H](Cc1ccc(O)cc1)C(=O)O,CN(C)C=O,mol_5993_solute_opt,mol_5993_solvent_opt,50,43,283.15,-2.2033091494679544,L-tyrosine,DMF
5994.0,CC(=NC#N)N(C)Cc1ccc(Cl)nc1,CN(C)C=O,mol_5994_solute_opt,mol_5994_solvent_opt,50,39,278.15,0.4479641006903634,Acetamiprid,DMF
5995.0,N[C@H](CC(=O)O)C(=O)O,CN(C)C=O,mol_5995_solute_opt,mol_5995_solvent_opt,50,46,288.15,-0.845147018170781,D-aspartic acid,DMF
5996.0,N#CC(c1ccc(Cl)cc1)c1c(Cl)cc(-n2ncc(=O)[nH]c2=O)cc1Cl,CN(C)C=O,mol_5996_solute_opt,mol_5996_solvent_opt,50,38,283.15,-0.4668272300850205,Diclazuril,DMF
5997.0,Nc1nnn[nH]1,CN(C)C=O,mol_5997_solute_opt,mol_5997_solvent_opt,50,44,283.15,-0.4160051586421829,5-aminotetrazole,DMF
5998.0,CC(C)=CCC[C@@H](C)[C@H]1CC[C@@]2(C)C3=C(CC[C@]12C)[C@@]1(C)CC[C@H](O)C(C)(C)[C@@H]1CC3,CN(C)C=O,mol_5998_solute_opt,mol_5998_solvent_opt,50,32,277.15,-2.335466490469218,Lanosterol,DMF
5999.0,COC(=O)Nc1nc2ccc(Sc3ccccc3)cc2[nH]1,CN(C)C=O,mol_5999_solute_opt,mol_5999_solvent_opt,50,36,283.15,-0.2658104413644078,Fenbendazole,DMF
6000.0,O=C1C=CC(=O)N1c1ccccc1Br,CN(C)C=O,mol_6000_solute_opt,mol_6000_solvent_opt,50,38,278.15,0.333667611204979,"1-(2-bromo-phenyl)-pyrrole-2,5-dione",DMF
6001.0,Cc1nc(N)nc(N)n1,CN(C)C=O,mol_6001_solute_opt,mol_6001_solvent_opt,50,40,283.15,-1.87113867654356,Acetoguanamine,DMF
6002.0,N[C@H](Cc1c[nH]cn1)C(=O)O,CN(C)C=O,mol_6002_solute_opt,mol_6002_solvent_opt,50,39,293.15,0.3721032395415184,D-histidine,DMF
6003.0,O=C(O)c1cccnc1Cl,CN(C)C=O,mol_6003_solute_opt,mol_6003_solvent_opt,50,43,273.15,0.2729698371437715,2-chloronicotinic acid,DMF
6004.0,C[C@]12CCC3=C4CCC(=O)C=C4CC[C@H]3[C@@H]1CC[C@@]2(O)CC#N,CN(C)C=O,mol_6004_solute_opt,mol_6004_solvent_opt,50,32,273.15,-0.4481162207405129,Dienogest,DMF
6005.0,O=C(Nc1c(Cl)cncc1Cl)c1ccc(OC(F)F)c(OCC2CC2)c1,CN(C)C=O,mol_6005_solute_opt,mol_6005_solvent_opt,50,29,278.2,-4.278082432886781,Roflumilast,DMF
6006.0,Oc1ccc(OCc2ccccc2)cc1,CN(C)C=O,mol_6006_solute_opt,mol_6006_solvent_opt,50,39,283.15,-3.134095573897433,Monobenzone,DMF
6007.0,NC(N)=NC(N)=NCCc1ccccc1,CN(C)C=O,mol_6007_solute_opt,mol_6007_solvent_opt,50,36,278.15,-0.6742694382094522,Phenformin,DMF
6008.0,Cc1cc(=O)oc2cc(N)ccc12,CN(C)C=O,mol_6008_solute_opt,mol_6008_solvent_opt,50,36,278.15,-0.0914611891117833,7-amino-4-methylcoumarin,DMF