pair_id,SMILES_Solute,SMILES_Solvent,Solute_name,Solvent_name,Total_conformers,Filtered_conformers,Temperature_K,LogS,Compound_Name,Solvent
4546.0,Cn1c(=O)c2[nH]cnc2n(C)c1=O,CC(C)=O,mol_4546_solute_opt,mol_4546_solvent_opt,50,40,288.02,-2.03847885251966,Theophylline,acetone
4547.0,Cn1c(=O)c2c(ncn2C)n(C)c1=O,CC(C)=O,mol_4547_solute_opt,mol_4547_solvent_opt,50,31,288.24,-1.4162149264944306,Caffeine,acetone
4548.0,Cn1cnc2c1c(=O)[nH]c(=O)n2C,CC(C)=O,mol_4548_solute_opt,mol_4548_solvent_opt,50,33,288.13,-3.6956397567529313,Theobromine,acetone
4549.0,CC(=O)Nc1ccc(O)cc1,CC(C)=O,mol_4549_solute_opt,mol_4549_solvent_opt,50,33,292.95,-0.3370119825684364,Paracetamol,acetone
4550.0,Cc1ccc(NC(=O)C(C)Cl)cc1,CC(C)=O,mol_4550_solute_opt,mol_4550_solvent_opt,50,39,271.96,-0.035891281073416,2-chloro-N-(4-methylphenyl)propanamide,acetone
4551.0,N#Cc1cccnc1,CC(C)=O,mol_4551_solute_opt,mol_4551_solvent_opt,50,45,268.15,0.6652981543688853,3-cyanopyridine,acetone
4552.0,On1nnc2ccccc21,CC(C)=O,mol_4552_solute_opt,mol_4552_solvent_opt,50,37,278.15,-0.7081556009291136,1-hydroxybenzotriazole,acetone
4553.0,CC(C)(C#N)N=NC(C)(C)C#N,CC(C)=O,mol_4553_solute_opt,mol_4553_solvent_opt,50,40,278.15,-0.11983879069447,"2,2′-azobisisobutyronitrile (AIBN)",acetone
4554.0,CS(=O)(=O)c1ccc([C@@H](O)[C@@H](CO)NC(=O)C(Cl)Cl)cc1,CC(C)=O,mol_4554_solute_opt,mol_4554_solvent_opt,50,30,278.15,-2.4047162250911027,Thiamphenicol,acetone
4555.0,CC1(C)COP(=O)(C(Nc2ccccc2)c2ccccc2)OC1,CC(C)=O,mol_4555_solute_opt,mol_4555_solvent_opt,50,24,278.15,-1.4684816839358823,"5,5-dimethyl-2-(phenyl(phenylamino)methyl)-1,3,2-dioxaphosphinane 2-oxide",acetone
4556.0,N#Cc1cccc([N+](=O)[O-])c1,CC(C)=O,mol_4556_solute_opt,mol_4556_solvent_opt,50,44,278.15,0.0757779751021791,3-nitrobenzonitrile,acetone
4557.0,OC/C=C/c1ccccc1,CC(C)=O,mol_4557_solute_opt,mol_4557_solvent_opt,50,38,253.15,0.7482749184940404,Trans-cinnamyl alcohol,acetone
4558.0,CC1(C)COP(=O)(Oc2cccc(OP3(=O)OCC(C)(C)CO3)c2)OC1,CC(C)=O,mol_4558_solute_opt,mol_4558_solvent_opt,50,23,293.15,-1.0805116540222732,"Resorcinol bis(cyclic 2,2-dimethyl-1,3-propanediol phosphate)",acetone
4559.0,Cc1ccc(NC(=O)/C(=C/Cl)Sc2ccccc2)cc1,CC(C)=O,mol_4559_solute_opt,mol_4559_solvent_opt,50,34,278.15,-0.5129951766023911,N-(4-methylphenyl-z-3-chloro-2-(phenylthio)propenamide,acetone
4560.0,Nc1ccc(S(=O)(=O)Nc2ccc(Cl)nn2)cc1,CC(C)=O,mol_4560_solute_opt,mol_4560_solvent_opt,50,42,283.15,-0.0201117784499793,Sulfachloropyridazine,acetone
4561.0,COc1ccc(C(=O)N2CCCC2=O)cc1,CC(C)=O,mol_4561_solute_opt,mol_4561_solvent_opt,50,30,273.15,-0.5633290781534945,Aniracetam,acetone
4562.0,O=C(O)Cc1ccccc1Cl,CC(C)=O,mol_4562_solute_opt,mol_4562_solvent_opt,50,34,273.15,0.5683058151508954,2-chlorophenylacetic acid,acetone
4563.0,CC(=O)c1ccc([N+](=O)[O-])cc1,CC(C)=O,mol_4563_solute_opt,mol_4563_solvent_opt,50,39,278.15,0.3319054503128877,1-(4-nitrophenyl)ethanone,acetone
4564.0,CC(=O)c1cccc([N+](=O)[O-])c1,CC(C)=O,mol_4564_solute_opt,mol_4564_solvent_opt,50,38,278.15,0.1893073419383631,1-(3-nitrophenyl)ethanone,acetone
4565.0,O=C(c1ccccc1)c1ccccc1,CC(C)=O,mol_4565_solute_opt,mol_4565_solvent_opt,50,35,278.15,0.7955801193719244,Benzophenone,acetone
4566.0,Nc1nc(Cl)cc(Cl)n1,CC(C)=O,mol_4566_solute_opt,mol_4566_solvent_opt,50,39,278.15,-1.1234828737876628,"2-amino-4,6-dichoropyrimidine",acetone
4567.0,CCOC(=O)[C@H](CCc1ccccc1)N[C@@H](C)C(=O)O,CC(C)=O,mol_4567_solute_opt,mol_4567_solvent_opt,50,32,273.15,-1.2637061204534612,Enalapril hydride,acetone
4568.0,C[C@H](O)[C@@H](O)[C@@H](O)[C@H](O)C=O,CC(C)=O,mol_4568_solute_opt,mol_4568_solvent_opt,50,32,288.15,-2.5010839810690704,L-fucose,acetone
4569.0,COCC(=O)Nc1c(I)c(C(=O)NCC(O)CO)c(I)c(C(=O)N(C)CC(O)CO)c1I,CC(C)=O,mol_4569_solute_opt,mol_4569_solvent_opt,50,17,273.15,-3.304645351139908,Iopromide,acetone
4570.0,O=c1[nH]cc(F)c(=O)[nH]1,CC(C)=O,mol_4570_solute_opt,mol_4570_solvent_opt,50,41,282.9,-1.6771898340554312,5-fluorouracil,acetone
4571.0,O=c1nc[nH]c2[nH]ncc12,CC(C)=O,mol_4571_solute_opt,mol_4571_solvent_opt,50,43,278.15,-2.041469492823785,Allopurinol,acetone
4572.0,COc1ccc2cc([C@H](C)C(=O)O)ccc2c1,CC(C)=O,mol_4572_solute_opt,mol_4572_solvent_opt,50,26,298.15,-0.1762405212921409,(S)-Naproxen,acetone
4573.0,O=C(O)Cc1ccccc1Nc1c(Cl)cccc1Cl,CC(C)=O,mol_4573_solute_opt,mol_4573_solvent_opt,50,32,298.15,-0.4309809406003351,Diclofenac,acetone
4574.0,O=C(O)c1cccnc1Nc1cccc(C(F)(F)F)c1,CC(C)=O,mol_4574_solute_opt,mol_4574_solvent_opt,50,32,298.15,-0.3971616645614834,Niflumic acid,acetone
4575.0,c1cc2cccc3c4cccc5cccc(c(c1)c23)c54,CC(C)=O,mol_4575_solute_opt,mol_4575_solvent_opt,50,28,298.15,-2.3905482406789296,Perylene,acetone
4576.0,c1ccc(N(c2ccc(-c3ccc(N(c4ccccc4)c4cccc5ccccc45)cc3)cc2)c2cccc3ccccc23)cc1,CC(C)=O,mol_4576_solute_opt,mol_4576_solvent_opt,50,25,298.15,-3.544953859581593,"N,N′-di-1-naphthyl-N,N′-diphenylbenzidine",acetone
4577.0,c1ccc2c(c1)c1ccccc1n2-c1ccc(-c2ccc(-n3c4ccccc4c4ccccc43)cc2)cc1,CC(C)=O,mol_4577_solute_opt,mol_4577_solvent_opt,50,22,298.15,-2.684487595632484,"4,4′-bis(9H-carbazol-9-yl)biphenyl (CBP)",acetone
4578.0,c1ccc2cc3cc4ccccc4cc3cc2c1,CC(C)=O,mol_4578_solute_opt,mol_4578_solvent_opt,50,27,298.15,-3.354683524267489,Tetracene,acetone
4579.0,c1ccc2cc3ccccc3cc2c1,CC(C)=O,mol_4579_solute_opt,mol_4579_solvent_opt,50,34,298.15,-1.3654351016064912,Anthracene,acetone
4580.0,NC(=O)c1cccnc1,CC(C)=O,mol_4580_solute_opt,mol_4580_solvent_opt,50,40,283.15,-0.7908551391656727,Nicotinamide,acetone
4581.0,CC(=O)O[C@H]1CC[C@@]2(C)C(=CC[C@@H]3[C@@H]2CC[C@]2(C)C(c4cccnc4)=CC[C@@H]32)C1,CC(C)=O,mol_4581_solute_opt,mol_4581_solvent_opt,50,31,296.0,-0.7545509903439924,Abiraterone acetate,acetone
4582.0,O=C(O)c1cc2ccccc2cc1O,CC(C)=O,mol_4582_solute_opt,mol_4582_solvent_opt,50,35,293.15,-0.2903797798433931,3-hydroxy-2-naphthoic acid,acetone
4583.0,O=C(Nc1ccc(F)cc1F)c1cccnc1Oc1cccc(C(F)(F)F)c1,CC(C)=O,mol_4583_solute_opt,mol_4583_solvent_opt,50,30,278.15,-0.8974994146724,Diflufenican,acetone
4584.0,CC[C@@H](C(N)=O)N1CCCC1=O,CC(C)=O,mol_4584_solute_opt,mol_4584_solvent_opt,50,34,283.15,-1.013077680270447,Levetiracetam,acetone
4585.0,N#CCc1ccc([N+](=O)[O-])cc1,CC(C)=O,mol_4585_solute_opt,mol_4585_solvent_opt,50,42,278.15,-0.0757309423728872,p-nitrophenylacetonitrile,acetone
4586.0,CCCN(CCC)S(=O)(=O)c1ccc(C(=O)O)cc1,CC(C)=O,mol_4586_solute_opt,mol_4586_solvent_opt,50,25,283.15,-0.7395471432171684,Probenecid,acetone
4587.0,Cc1nc(C)c(C)nc1C,CC(C)=O,mol_4587_solute_opt,mol_4587_solvent_opt,50,28,273.15,-0.1715443774688227,Tetramethylpyrazine,acetone
4588.0,COc1c(N2CCNC(C)C2)c(F)cc2c(=O)c(C(=O)O)cn(C3CC3)c12,CC(C)=O,mol_4588_solute_opt,mol_4588_solvent_opt,50,21,273.15,-1.944827047506205,Gatifloxacin,acetone
4589.0,Nc1cc([N+](=O)[O-])ccc1Cl,CC(C)=O,mol_4589_solute_opt,mol_4589_solvent_opt,50,43,273.15,0.2073201102417938,2-chloro-5-nitroaniline,acetone
4590.0,C[C@@H](O)[C@H]1C(=O)N2C(C(=O)[O-])=C(SC3Cn4cnc[n+]4C3)[C@H](C)[C@H]12,CC(C)=O,mol_4590_solute_opt,mol_4590_solvent_opt,50,27,283.15,-4.612366746651944,Biapenem,acetone
4591.0,CC#C[C@]1(O)CC[C@H]2[C@@H]3CCC4=CC(=O)CCC4=C3[C@@H](c3ccc(N(C)C)cc3)C[C@@]21C,CC(C)=O,mol_4591_solute_opt,mol_4591_solvent_opt,50,26,273.15,-2.68041300435104,Mifepristone,acetone
4592.0,Nc1nc2c(ncn2COC(CO)CO)c(=O)[nH]1,CC(C)=O,mol_4592_solute_opt,mol_4592_solvent_opt,50,40,278.15,-5.340793764472546,Ganciclovir,acetone
4593.0,CC(C)N1C(=O)N(c2ccccc2)CSC1=NC(C)(C)C,CC(C)=O,mol_4593_solute_opt,mol_4593_solvent_opt,50,26,273.15,-0.3633144670090644,Buprofezin,acetone
4594.0,CC(=O)N(CC(O)CO)c1c(I)c(C(=O)NCC(O)CO)c(I)c(C(=O)NCC(O)CO)c1I,CC(C)=O,mol_4594_solute_opt,mol_4594_solvent_opt,50,19,283.15,-2.6182275470027494,Iohexol,acetone
4595.0,NC(=O)c1ccc(N)cc1,CC(C)=O,mol_4595_solute_opt,mol_4595_solvent_opt,50,40,283.15,-0.9842110302232058,4-aminobenzamide,acetone
4596.0,N#CCC(N)=O,CC(C)=O,mol_4596_solute_opt,mol_4596_solvent_opt,50,40,273.15,-0.4479469960410368,2-cyanoacetamide,acetone
4597.0,Cc1cccc(C(=O)O)c1N,CC(C)=O,mol_4597_solute_opt,mol_4597_solvent_opt,50,37,278.15,0.0490362922613194,2-amino-3-methylbenzoic acid,acetone
4598.0,N#Cc1cccc([N+](=O)[O-])c1C#N,CC(C)=O,mol_4598_solute_opt,mol_4598_solvent_opt,50,37,278.15,-0.5376995931839872,3-nitrophthalonitrile,acetone
4599.0,Cc1[nH]nc2cc([N+](=O)[O-])ccc12,CC(C)=O,mol_4599_solute_opt,mol_4599_solvent_opt,50,38,278.15,-0.4462188326343929,3-methyl-6-nitroindazole,acetone
4600.0,O=C(O)Cc1c[nH]c2ccccc12,CC(C)=O,mol_4600_solute_opt,mol_4600_solvent_opt,50,37,278.15,-3.46037362298462,Indole-3-acetic acid,acetone
4601.0,CC1(C)[C@@H]2CC[C@@]1(C)[C@@H](O)C2,CC(C)=O,mol_4601_solute_opt,mol_4601_solvent_opt,50,34,297.05,-0.0110163123303758,Borneol,acetone
4602.0,CC1(C)[C@@H]2CC[C@@]1(C)[C@H](O)C2,CC(C)=O,mol_4602_solute_opt,mol_4602_solvent_opt,50,41,296.95,0.8373884984920608,Isoborneol,acetone
4603.0,CC12CCC(CC1=O)C2(C)C,CC(C)=O,mol_4603_solute_opt,mol_4603_solvent_opt,50,36,303.15,1.2197498066432912,Camphor,acetone
4604.0,CN(C)/C=C/C(=O)c1cccnc1,CC(C)=O,mol_4604_solute_opt,mol_4604_solvent_opt,50,26,278.15,-0.912612342762376,(2E)-1-(3-pyridyl)-3-(dimethylamino)-2-propen-1-one,acetone
4605.0,Sc1nc2ccccc2[nH]1,CC(C)=O,mol_4605_solute_opt,mol_4605_solvent_opt,50,39,278.15,-0.7688600988402132,2-mercaptobenzimidazole,acetone
4606.0,O=Cc1cc([N+](=O)[O-])ccc1O,CC(C)=O,mol_4606_solute_opt,mol_4606_solvent_opt,50,46,273.15,-0.434683905654641,5-nitrosalicylaldehyde,acetone
4607.0,N#CCc1ccccc1[N+](=O)[O-],CC(C)=O,mol_4607_solute_opt,mol_4607_solvent_opt,50,40,278.15,0.3159536354553768,o-nitrophenylacetonitrile,acetone
4608.0,OCc1ccc(O[C@@H]2O[C@H](CO)[C@@H](O)[C@H](O)[C@H]2O)cc1,CC(C)=O,mol_4608_solute_opt,mol_4608_solvent_opt,50,23,273.15,-1.8664707831027327,Gastrodin,acetone
4609.0,CC(=NC#N)N(C)Cc1ccc(Cl)nc1,CC(C)=O,mol_4609_solute_opt,mol_4609_solvent_opt,50,35,278.15,0.2059254238210975,Acetamiprid,acetone
4610.0,O=C1Cc2ccccc2N1,CC(C)=O,mol_4610_solute_opt,mol_4610_solvent_opt,50,42,288.15,-0.1432221433261044,2-oxindole,acetone
4611.0,N[C@H](CC(=O)O)C(=O)O,CC(C)=O,mol_4611_solute_opt,mol_4611_solvent_opt,50,39,288.15,-1.4441363736551291,D-aspartic acid,acetone
4612.0,NC(=O)c1ccccc1N,CC(C)=O,mol_4612_solute_opt,mol_4612_solvent_opt,50,36,273.15,0.4396067985133329,2-aminobenzamide,acetone
4613.0,N#CC(c1ccc(Cl)cc1)c1c(Cl)cc(-n2ncc(=O)[nH]c2=O)cc1Cl,CC(C)=O,mol_4613_solute_opt,mol_4613_solvent_opt,50,37,283.15,-0.7746934606079723,Diclazuril,acetone
4614.0,NS(=O)(=O)c1ccccc1,CC(C)=O,mol_4614_solute_opt,mol_4614_solvent_opt,50,40,273.15,0.2668771680381409,Benzenesulfonamide,acetone
4615.0,Fc1c(I)c(F)c(I)c(F)c1I,CC(C)=O,mol_4615_solute_opt,mol_4615_solvent_opt,50,44,290.15,-3.559087766862101,"1,3,5-trifluoro-2,4,6-triiodobenzene",acetone
4616.0,Nc1nnn[nH]1,CC(C)=O,mol_4616_solute_opt,mol_4616_solvent_opt,50,45,283.15,-1.9850425490152268,5-aminotetrazole,acetone
4617.0,CC(C)=CCC[C@@H](C)[C@H]1CC[C@@]2(C)C3=C(CC[C@]12C)[C@@]1(C)CC[C@H](O)C(C)(C)[C@@H]1CC3,CC(C)=O,mol_4617_solute_opt,mol_4617_solvent_opt,50,18,278.65,-2.037224597956288,Lanosterol,acetone
4618.0,Cc1cnc(C(=O)O)cn1,CC(C)=O,mol_4618_solute_opt,mol_4618_solvent_opt,50,37,273.15,-4.027586274978879,5-methyl-2-pyrazinecarboxylic acid,acetone
4619.0,Nc1ccc(S(N)(=O)=O)cc1,CC(C)=O,mol_4619_solute_opt,mol_4619_solvent_opt,50,37,278.15,0.100637177182546,Sulfanilamide,acetone
4620.0,Cc1ccccc1S(N)(=O)=O,CC(C)=O,mol_4620_solute_opt,mol_4620_solvent_opt,50,37,273.15,0.0415512628502466,o-Toluenesulfonamide,acetone
4621.0,N=C(N)NC(N)=S,CC(C)=O,mol_4621_solute_opt,mol_4621_solvent_opt,50,35,283.15,-0.8428997165370167,Amidinothiourea,acetone
4622.0,N[C@@H](CO)C(=O)O,CC(C)=O,mol_4622_solute_opt,mol_4622_solvent_opt,50,44,278.15,-3.3945218911035373,L-serine,acetone
4623.0,CN1CCN(c2c(F)cc3c(=O)c(C(=O)O)cn4c3c2OCN4C)CC1,CC(C)=O,mol_4623_solute_opt,mol_4623_solvent_opt,50,25,283.15,-2.5197074234711856,Marbofloxacin,acetone
4624.0,O=C1C=CC(=O)N1c1ccccc1Br,CC(C)=O,mol_4624_solute_opt,mol_4624_solvent_opt,50,38,278.15,0.162675629786595,"1-(2-bromo-phenyl)-pyrrole-2,5-dione",acetone
4625.0,N[C@@H](Cc1c[nH]c2ccccc12)C(=O)O,CC(C)=O,mol_4625_solute_opt,mol_4625_solvent_opt,50,36,278.15,-2.856889052105285,L-tryptophan,acetone
4626.0,O=[N+]([O-])c1ncccc1O,CC(C)=O,mol_4626_solute_opt,mol_4626_solvent_opt,50,43,278.15,0.4144507895071238,3-hydroxy-2-nitropyridine,acetone
4627.0,COC(=O)c1ccc(C(=O)OC)cc1,CC(C)=O,mol_4627_solute_opt,mol_4627_solvent_opt,50,36,283.2,-0.926728954367906,Dimethyl terephthalate,acetone
4628.0,O=C(O)c1cccnc1Cl,CC(C)=O,mol_4628_solute_opt,mol_4628_solvent_opt,50,40,273.15,-0.8987206165983798,2-chloronicotinic acid,acetone
4629.0,C[C@]12CCC3=C4CCC(=O)C=C4CC[C@H]3[C@@H]1CC[C@@]2(O)CC#N,CC(C)=O,mol_4629_solute_opt,mol_4629_solvent_opt,50,29,273.15,-1.1851261909061954,Dienogest,acetone
4630.0,C[C@H](N)C(=O)O,CC(C)=O,mol_4630_solute_opt,mol_4630_solvent_opt,50,38,283.15,-3.0085605904403394,L-alanine,acetone
4631.0,O=C(O)[C@@H]1CCCN1,CC(C)=O,mol_4631_solute_opt,mol_4631_solvent_opt,50,38,283.15,-2.8641715832826624,L-proline,acetone
4632.0,Oc1ccc(OCc2ccccc2)cc1,CC(C)=O,mol_4632_solute_opt,mol_4632_solvent_opt,50,34,283.15,-3.6293934707150974,Monobenzone,acetone
4633.0,COC(=O)C(C)(C)N=NC(C)(C)C(=O)OC,CC(C)=O,mol_4633_solute_opt,mol_4633_solvent_opt,50,28,252.75,0.1216361746139767,"2,2′-azobis(2-methylpropionate)",acetone
4634.0,CN(C)Cc1c[nH]c2ccccc12,CC(C)=O,mol_4634_solute_opt,mol_4634_solvent_opt,50,34,273.15,-0.479325127173009,Gramine,acetone
4635.0,ON(Cc1ccccc1)Cc1ccccc1,CC(C)=O,mol_4635_solute_opt,mol_4635_solvent_opt,50,32,273.15,-0.968387019226919,"N,N-dibenzylhydroxylamine",acetone
4636.0,CC(=O)Oc1ccccc1C(=O)O,CC(C)=O,mol_4636_solute_opt,mol_4636_solvent_opt,50,37,283.15,-0.0333027285567997,Aspirin,acetone
4637.0,Cc1nc(CCl)nc2ccccc12,CC(C)=O,mol_4637_solute_opt,mol_4637_solvent_opt,50,34,281.15,0.2214699673754801,2-chloromethyl-4-methylquinazoline,acetone
4638.0,CC(=O)N[C@@H](CC(C)C)C(=O)O,CC(C)=O,mol_4638_solute_opt,mol_4638_solvent_opt,50,35,283.15,-1.2981237063188626,N-acetyl-L-leucine,acetone
4639.0,O=c1[nH]c2ccccc2c(=O)o1,CC(C)=O,mol_4639_solute_opt,mol_4639_solvent_opt,50,42,288.15,-0.9595188972080744,Isatoic anhydride,acetone
4640.0,Oc1c(Br)cc(Br)c2cccnc12,CC(C)=O,mol_4640_solute_opt,mol_4640_solvent_opt,50,34,288.15,-2.08901356238687,"5,7-dibromo-8-hydroxyquinoline",acetone
4641.0,CC(=O)NC1(C)CCC2CC1C(C)=NC2(C)C,CC(C)=O,mol_4641_solute_opt,mol_4641_solvent_opt,50,26,298.15,-1.3127105335937954,"8-acetamide-2,4,4,8-tetramethyl-3-azabicyclo[3.3.1]non-2-ene perchlorate",acetone
4642.0,O=C1CCC(c2ccc(Cl)c(Cl)c2)c2ccccc21,CC(C)=O,mol_4642_solute_opt,mol_4642_solvent_opt,50,32,282.13,-0.6436978937180822,"4-(3,4-dichlorophenyl)-1-tetralone",acetone
4643.0,OC[C@@H](O)C(O)[C@@H](O)CO,CC(C)=O,mol_4643_solute_opt,mol_4643_solvent_opt,50,42,293.29,-2.5594860046512724,Xylitol,acetone
4645.0,COP(=O)(NC(C)=O)SC,CC(C)=O,mol_4645_solute_opt,mol_4645_solvent_opt,50,34,299.45,-0.0073065480210757,Acephate,acetone
4646.0,CC1=C(/C=C/C(C)=C/C=C/C(C)=C/C=C/C=C(C)/C=C/C=C(C)/C=C/C2=C(C)CCCC2(C)C)C(C)(C)CCC1,CC(C)=O,mol_4646_solute_opt,mol_4646_solvent_opt,50,16,293.15,-3.720210430052072,Β-carotene,acetone
4647.0,O=C(O)c1cccc([N+](=O)[O-])c1C(=O)O,CC(C)=O,mol_4647_solute_opt,mol_4647_solvent_opt,50,36,278.16,-0.1132592833076646,3-nitrophthalic acid,acetone
4648.0,COC1=CC(=O)C[C@@H](C)[C@]12Oc1c(Cl)c(OC)cc(OC)c1C2=O,CC(C)=O,mol_4648_solute_opt,mol_4648_solvent_opt,50,30,281.95,-1.0447044200290767,Griseofulvin,acetone
4649.0,CN/C(=C\[N+](=O)[O-])NCCSCc1csc(CN(C)C)n1,CC(C)=O,mol_4649_solute_opt,mol_4649_solvent_opt,50,30,273.15,-1.4006467561557656,Nizatidine,acetone
4650.0,C[C@@H]1CC[C@H]2[C@@H](C)C(=O)O[C@@H]3O[C@@]4(C)CC[C@@H]1[C@]32OO4,CC(C)=O,mol_4650_solute_opt,mol_4650_solvent_opt,50,32,284.15,-1.2512557402396798,Artemisinin,acetone
4651.0,CCN1CCCC1CNC(=O)c1cc(S(N)(=O)=O)ccc1OC,CC(C)=O,mol_4651_solute_opt,mol_4651_solvent_opt,50,23,278.25,-1.8697938263573195,Sulpiride,acetone
4652.0,C[C@@]12C[C@H]3OC(=O)[C@@H]1CO[C@]14O[C@@]5([C@H]2C1=O)[C@@]3(C)OC(=O)[C@@]5(O)CC[C@H]1[C@H]4C[C@@H](O)[C@@]2(O)CC=CC(=O)[C@]12C,CC(C)=O,mol_4652_solute_opt,mol_4652_solvent_opt,50,26,283.2,-0.614255779455862,Physalin D,acetone
4653.0,CC(C)Cc1ccc(C(C)C(=O)O)cc1,CC(C)=O,mol_4653_solute_opt,mol_4653_solvent_opt,50,31,283.57,0.3647193079666516,Ibuprofen,acetone
4654.0,Brc1c(Br)c(Br)c(Oc2c(Br)c(Br)c(Br)c(Br)c2Br)c(Br)c1Br,CC(C)=O,mol_4654_solute_opt,mol_4654_solvent_opt,50,33,283.0,-3.216284548592021,Decabromodiphenyl ether,acetone
4655.0,O=C(O)CCP(=O)(O)c1ccccc1,CC(C)=O,mol_4655_solute_opt,mol_4655_solvent_opt,50,34,293.16,-1.9965780476691213,2-carboxyethylphenylphosphinic acid,acetone
4656.0,O=P(O)(CO)c1ccccc1,CC(C)=O,mol_4656_solute_opt,mol_4656_solvent_opt,50,38,288.15,-1.7484034138758446,Hydroxymethylphenylphosphinic acid ,acetone
4657.0,O=P1(O)OCC2(CO1)COP(=O)(O)OC2,CC(C)=O,mol_4657_solute_opt,mol_4657_solvent_opt,50,35,295.75,-1.263970795727774,"3,9-dihydroxy-2,4,8,10-tetraoxa-3,9-diphosphaspiro-[5.5]-undecane-3,9-dioxide",acetone
4658.0,O=P1(Oc2ccccc2)OCC2(CO1)COP(=O)(Oc1ccccc1)OC2,CC(C)=O,mol_4658_solute_opt,mol_4658_solvent_opt,50,30,293.17,-1.490358739588912,"3,9-diphenoxy-2,4,8,10-tetraoxa-3,9-diphosphaspiro-[5.5]-undecane-3,9-dioxide",acetone
4659.0,N[C@@H](Cc1ccc([N+](=O)[O-])cc1[N+](=O)[O-])C(=O)O,CC(C)=O,mol_4659_solute_opt,mol_4659_solvent_opt,50,42,273.15,-4.65445682124641,"2,4-dinitro-L-phenylalanine",acetone
4660.0,CO/N=C(/C(=O)N[C@@H]1C(=O)N2C(C(=O)O)=C(COC(N)=O)CS[C@H]12)c1ccco1,CC(C)=O,mol_4660_solute_opt,mol_4660_solvent_opt,50,26,278.5,-1.2966788520122323,Cefuroxime acid,acetone
4661.0,CO[C@H]1C[C@@H]2CC[C@@H](C)[C@@](O)(O2)C(=O)C(=O)N2CCCC[C@H]2C(=O)O[C@H]([C@H](C)C[C@@H]2CC[C@@H](O)[C@H](OC)C2)CC(=O)[C@H](C)/C=C(\C)[C@@H](O)[C@@H](OC)C(=O)[C@H](C)C[C@H](C)/C=C/C=C/C=C/1C,CC(C)=O,mol_4661_solute_opt,mol_4661_solvent_opt,50,15,295.0,-1.3662342281688773,Sirolimus,acetone
4662.0,CCCCOC(=O)c1ccc(O)cc1,CC(C)=O,mol_4662_solute_opt,mol_4662_solvent_opt,50,33,281.05,1.3181269644455802,Butyl paraben,acetone
4663.0,O=C1C=CC(=O)N1c1cc(F)c(Br)c(F)c1,CC(C)=O,mol_4663_solute_opt,mol_4663_solvent_opt,50,35,287.65,-1.0083095479112458,"N-[(4-bromo-3,5-difluorine)-phenyl]maleimide",acetone
4664.0,CS(=O)(=O)c1ccc([C@@H](O)[C@@H](CF)NC(=O)C(Cl)Cl)cc1,CC(C)=O,mol_4664_solute_opt,mol_4664_solvent_opt,50,27,279.25,-0.4293006853698883,Florfenicol,acetone
4665.0,CO/N=C(\C(=O)Sc1nc2ccccc2s1)c1csc(N)n1,CC(C)=O,mol_4665_solute_opt,mol_4665_solvent_opt,50,29,278.32,-1.467330999196743,"(α,Z)-2-Amino-α-(methoxyimino)-4-thiazole-ethanethioic Acid S-2-Benzothiazolyl Ester",acetone
4666.0,CP(=O)(O)c1ccccc1,CC(C)=O,mol_4666_solute_opt,mol_4666_solvent_opt,50,36,293.15,-0.1704395703753974,Methylphenylphosphinic acid,acetone
4667.0,ClP1(Cl)=NP(Cl)(Cl)=NP(Cl)(Cl)=N1,CC(C)=O,mol_4667_solute_opt,mol_4667_solvent_opt,50,39,293.15,-0.3820036226951954,Hexachlorocyclotriphosphazene,acetone
4668.0,O=[PH](O)c1ccccc1,CC(C)=O,mol_4668_solute_opt,mol_4668_solvent_opt,50,41,293.35,-0.3684993504421686,Phenylphosphinic acid,acetone
4669.0,c1ccc(OP2(Oc3ccccc3)=NP(Oc3ccccc3)(Oc3ccccc3)=NP(Oc3ccccc3)(Oc3ccccc3)=N2)cc1,CC(C)=O,mol_4669_solute_opt,mol_4669_solvent_opt,50,19,293.15,-0.3835180696418361,Hexaphenoxycyclotriphosphazene,acetone
4670.0,COc1cc(CNC(=O)CCCCCCC(C)C)ccc1O,CC(C)=O,mol_4670_solute_opt,mol_4670_solvent_opt,50,26,299.49,0.5079749917166204,Dihydrocapsaicin,acetone
4671.0,O=C(O)CC(O)(CC(=O)O)C(=O)O,CC(C)=O,mol_4671_solute_opt,mol_4671_solvent_opt,50,37,288.15,-0.0936550247366727,Citric acid,acetone
4672.0,CC(=O)O[C@H]1CC[C@@]2(C)C(=CC[C@@H]3[C@@H]2CC[C@]2(C)C(C(C)=O)=CC[C@@H]32)C1,CC(C)=O,mol_4672_solute_opt,mol_4672_solvent_opt,50,28,278.55,-1.2249114195759967,16-dehydropregnenolone acetate,acetone
4673.0,Clc1cc(Cl)c(OCCBr)c(Cl)c1,CC(C)=O,mol_4673_solute_opt,mol_4673_solvent_opt,50,41,278.2,0.1592228582561355,"2-(2,4,6-trichlorophenoxy)ethyl bromide",acetone
4674.0,c1ccc2c(c1)OP1(=NP3(=NP4(=N1)Oc1ccccc1O4)Oc1ccccc1O3)O2,CC(C)=O,mol_4674_solute_opt,mol_4674_solvent_opt,50,23,294.35,-2.468661770999564,Tris(o-phenylenedioxy)cyclotriphosphazene,acetone