pair_id,SMILES_Solute,SMILES_Solvent,Solute_name,Solvent_name,Total_conformers,Filtered_conformers,Temperature_K,LogS,Compound_Name,Solvent
6009.0,C(=Cc1ccc(-c2nc3ccccc3o2)cc1)c1ccc(-c2nc3ccccc3o2)cc1,CN(C)C=O,mol_6009_solute_opt,mol_6009_solvent_opt,50,32,323.15,-4.4194817375545785,"2,2′-(1,2-ethenediyldi-4,1-phenylene) bis-benzoxazole",DMF
6010.0,O=Cc1ccc(O)c(Br)c1,CN(C)C=O,mol_6010_solute_opt,mol_6010_solvent_opt,50,43,278.15,-0.7642349943642155,3-bromo-4-hydroxybenzaldehyde,DMF
6011.0,Cc1c(Br)cccc1C(=O)O,CN(C)C=O,mol_6011_solute_opt,mol_6011_solvent_opt,50,39,278.15,0.1859063909390232,3-bromo-2-methylbenzoic acid,DMF
6012.0,Oc1c(Br)cc(Br)c2cccnc12,CN(C)C=O,mol_6012_solute_opt,mol_6012_solvent_opt,50,38,288.15,-1.1944075552813382,"5,7-dibromo-8-hydroxyquinoline",DMF
6013.0,O=[N+]([O-])N1CN([N+](=O)[O-])CN([N+](=O)[O-])CN([N+](=O)[O-])C1,CN(C)C=O,mol_6013_solute_opt,mol_6013_solvent_opt,50,40,298.15,-0.976668579562191,Cyclotetramethylenetetranitramine (HMX),DMF
6014.0,N[C@@H](C(=O)O)c1ccc(O)cc1,CN(C)C=O,mol_6014_solute_opt,mol_6014_solvent_opt,50,37,278.27,-3.580658730730387,D-(p-hydroxy)phenylglycine,DMF
6015.0,O=C1CCC(c2ccc(Cl)c(Cl)c2)c2ccccc21,CN(C)C=O,mol_6015_solute_opt,mol_6015_solvent_opt,50,33,278.16,-0.3402837716241574,"4-(3,4-dichlorophenyl)-1-tetralone",DMF
6016.0,OC[C@@H](O)C(O)[C@@H](O)CO,CN(C)C=O,mol_6016_solute_opt,mol_6016_solvent_opt,50,43,293.21,-0.2545601958606293,Xylitol,DMF
6017.0,c1ccc2cc3ccccc3cc2c1,CN(C)C=O,mol_6017_solute_opt,mol_6017_solvent_opt,50,39,293.35,-1.261723698204129,Anthracene,DMF
6018.0,CCN1CCCC1CNC(=O)c1cc(S(N)(=O)=O)ccc1OC,CN(C)C=O,mol_6018_solute_opt,mol_6018_solvent_opt,50,32,277.95,-0.2735516335202413,Sulpiride,DMF
6019.0,O=C1C=CC(=O)N1c1cc(F)c(Br)c(F)c1,CN(C)C=O,mol_6019_solute_opt,mol_6019_solvent_opt,50,42,289.45,-0.5578855530041392,"N-[(4-bromo-3,5-difluorine)-phenyl]maleimide",DMF
6020.0,COC(=O)C1CC(=O)C(C(=O)OC)CC1=O,CN(C)C=O,mol_6020_solute_opt,mol_6020_solvent_opt,50,43,278.15,-1.4842413241492152,Dimethyl succinylsuccinate,DMF
6021.0,Nc1ccc(Cl)nn1,CN(C)C=O,mol_6021_solute_opt,mol_6021_solvent_opt,50,44,298.45,-0.3260996777134008,6-chloropyridazin-3-amine,DMF
6022.0,Cc1cccc(Nc2ccccc2C(=O)O)c1C,CN(C)C=O,mol_6022_solute_opt,mol_6022_solvent_opt,50,34,298.0,-0.6483778729311723,Mefenamic acid,DMF
6023.0,CC(C)[C@H](N)C(=O)O,CN(C)C=O,mol_6023_solute_opt,mol_6023_solvent_opt,50,44,293.15,-4.791193738008452,L-valine,DMF
6024.0,O=C1Nc2ccccc2C1=O,CN(C)C=O,mol_6024_solute_opt,mol_6024_solvent_opt,50,45,283.15,0.2785196941172677,Isatin,DMF
6025.0,O=C(O)CCCC[C@@H]1SC[C@@H]2NC(=O)N[C@@H]21,CN(C)C=O,mol_6025_solute_opt,mol_6025_solvent_opt,50,35,298.65,-1.3357634753610146,Biotin,DMF
6026.0,CCc1ccc(C(=O)c2ccccc2C(=O)O)cc1,CN(C)C=O,mol_6026_solute_opt,mol_6026_solvent_opt,50,34,281.2,0.8368525429996906,2-(4-ethylbenzoyl)benzoic acid,DMF
6027.0,CN(C)CCn1[nH]nnc1=S,CN(C)C=O,mol_6027_solute_opt,mol_6027_solvent_opt,50,42,293.45,-1.9820514437155103,1-(2-dimethylaminoethyl)-5-mercapto-1H-tetrazole,DMF
6028.0,c1ccc2ccccc2c1,CN(C)C=O,mol_6028_solute_opt,mol_6028_solvent_opt,50,45,278.05,0.4045906988415345,Naphthalene,DMF
6029.0,CCCCC(=O)N(Cc1ccc(-c2ccccc2-c2nn[nH]n2)cc1)[C@H](C(=O)O)C(C)C,CN(C)C=O,mol_6029_solute_opt,mol_6029_solvent_opt,50,29,278.15,-1.0401717241219708,Valsartan,DMF
6030.0,NC[C@H]1O[C@H](O[C@H]2[C@H](O)[C@@H](O[C@H]3O[C@H](CO)[C@@H](O)[C@H](N)[C@H]3O)[C@H](N)C[C@@H]2N)[C@H](N)C[C@@H]1O,CN(C)C=O,mol_6030_solute_opt,mol_6030_solvent_opt,50,28,293.15,-2.72738331715365,Tobramycin,DMF
6031.0,Nc1nc(N)c([N+](=O)[O-])cc1[N+](=O)[O-],CN(C)C=O,mol_6031_solute_opt,mol_6031_solvent_opt,50,46,304.15,-1.083324411758389,"2,6-diamino-3,5-dinitropyridine and 2,5-dihydroxyterephthalic acid",DMF
6032.0,COc1ccc(C(=O)/C=C/c2ccc(-c3cccc([N+](=O)[O-])c3)o2)cc1,CN(C)C=O,mol_6032_solute_opt,mol_6032_solvent_opt,50,27,298.15,-0.836501871045323,(E)-1-(4-methoxyphenyl)-3-[5-(3-nitrophenyl)furan-2-yl]prop-2-en-1-one ,DMF
6033.0,Nc1ccc(C(=O)/C=C/c2ccc(-c3cccc([N+](=O)[O-])c3)o2)cc1,CN(C)C=O,mol_6033_solute_opt,mol_6033_solvent_opt,50,31,298.15,-1.466263734325456,(E)-1-(4-aminophenyl)-3-(5-(3-nitrophenyl)furan-2-yl)prop-2-en-1-one,DMF
6034.0,O=C(/C=C/c1ccc(-c2cccc([N+](=O)[O-])c2)o1)CO,CN(C)C=O,mol_6034_solute_opt,mol_6034_solvent_opt,50,37,298.15,-0.9113162804682752,(E)-1-hydroxy-4-(5-(3-nitrophenyl)furan-2-yl)but-3-en-2-one,DMF
6035.0,O=C(/C=C/c1ccc(-c2cccc([N+](=O)[O-])c2)o1)c1ccc(Br)cc1,CN(C)C=O,mol_6035_solute_opt,mol_6035_solvent_opt,50,34,298.15,-1.037734277764354,(E)-1-(4-bromophenyl)-3-(5-(3-nitrophenyl)furan-2-yl)prop-2-en-1-one,DMF
6036.0,O=C(/C=C/c1ccc(-c2cccc([N+](=O)[O-])c2)o1)c1ccc(Cl)cc1,CN(C)C=O,mol_6036_solute_opt,mol_6036_solvent_opt,50,38,298.15,-1.2333206093618916,(E)-1-(4-chlorophenyl)-3-(5-(3-nitrophenyl)furan-2-yl)prop-2-en-1-one,DMF
6037.0,O=C(/C=C/c1ccc(-c2cccc([N+](=O)[O-])c2)o1)c1ccc(O)cc1,CN(C)C=O,mol_6037_solute_opt,mol_6037_solvent_opt,50,35,298.15,-1.0630321085450156,(E)-1-(4-hydroxyphenyl)-3-(5-(3-nitrophenyl)furan-2-yl)prop-2-en-1-one,DMF
6038.0,O=C(/C=C/c1ccc(-c2cccc([N+](=O)[O-])c2)o1)c1ccc([N+](=O)[O-])cc1,CN(C)C=O,mol_6038_solute_opt,mol_6038_solvent_opt,50,33,298.15,-1.5121727527052429,(E)-1-(4-nitrophenyl)-3-(5-(3-nitrophenyl)furan-2-yl)prop-2-en-1-one,DMF
6039.0,O=C(/C=C/c1ccc(-c2cccc([N+](=O)[O-])c2)o1)c1ccc2ccc(=O)oc2c1,CN(C)C=O,mol_6039_solute_opt,mol_6039_solvent_opt,50,29,298.15,-1.0432317592165508,(E)-7-(3-(5-(3-nitrophenyl)furan-2-yl)acryloyl)-2H-chromen-2-one,DMF
6040.0,O=C(/C=C/c1ccc(-c2cccc([N+](=O)[O-])c2)o1)c1cccc([N+](=O)[O-])c1,CN(C)C=O,mol_6040_solute_opt,mol_6040_solvent_opt,50,33,298.15,-1.1053071322128474,(E)-1-(3-nitrophenyl)-3-(5-(3-nitrophenyl)furan-2-yl)prop-2-en-1-one,DMF
6041.0,O=C(/C=C/c1ccc(-c2cccc([N+](=O)[O-])c2)o1)c1ccccc1,CN(C)C=O,mol_6041_solute_opt,mol_6041_solvent_opt,50,31,298.15,-0.8917081172124993,(E)-3-(5-(3-nitrophenyl)furan-2-yl)-1-phenylprop-2-en-1-one,DMF
6042.0,O=[N+]([O-])c1cccc2ccccc12,Cc1ccccc1,mol_6042_solute_opt,mol_6042_solvent_opt,50,43,298.15,0.8320660224238264,1-nitronaphthalene,toluene
6043.0,COC(=O)NCCCCCCNC(=O)OC,Cc1ccccc1,mol_6043_solute_opt,mol_6043_solvent_opt,50,38,298.15,-1.1617210250768988,Hexamethylene bis(methylcarbamate),toluene
6044.0,CCCc1nc2c(C)cc(-c3nc4ccccc4n3C)cc2n1Cc1ccc(-c2ccccc2C(=O)O)cc1,Cc1ccccc1,mol_6044_solute_opt,mol_6044_solvent_opt,50,27,278.65,-3.469494637298829,Telmisartan,toluene
6045.0,O=[N+]([O-])c1ccn([N+](=O)[O-])n1,Cc1ccccc1,mol_6045_solute_opt,mol_6045_solvent_opt,50,43,278.15,-0.2010392114083543,"1,3-dinitropyrazole",toluene
6046.0,O=[N+]([O-])c1c[nH]cn1,Cc1ccccc1,mol_6046_solute_opt,mol_6046_solvent_opt,50,47,278.15,-2.764156812156047,4-nitroimidazole,toluene
6047.0,O=[N+]([O-])c1cc([N+](=O)[O-])c(Cl)c(Cl)c1Cl,Cc1ccccc1,mol_6047_solute_opt,mol_6047_solvent_opt,50,44,278.15,0.1917612695231698,"2,3,4-trichloro-1,5-dinitrobenzene",toluene
6048.0,c1cc2ccc3cccc4ccc(c1)c2c34,Cc1ccccc1,mol_6048_solute_opt,mol_6048_solvent_opt,50,40,293.0,-0.2458638992568389,Pyrene,toluene
6049.0,c1ccc2c(c1)ccc1ccccc12,Cc1ccccc1,mol_6049_solute_opt,mol_6049_solvent_opt,50,44,293.0,0.906392820311253,Phenanthrene,toluene
6050.0,Nc1cccnc1,Cc1ccccc1,mol_6050_solute_opt,mol_6050_solvent_opt,50,47,283.15,-0.535863446102463,3-aminopyridine,toluene
6051.0,CC1(C)CO[P+]([O-])(Oc2c(Br)cc(Br)cc2Br)OC1,Cc1ccccc1,mol_6051_solute_opt,mol_6051_solvent_opt,50,41,293.15,-1.1287545794479614,"1,3,2-dioxaphosphorinane-5,5-dimethyl-2-(2,4,6-tribromophenoxy)-2-oxide",toluene
6052.0,Cc1nc2n(c(=O)c1CCN1CCC(c3noc4cc(F)ccc34)CC1)CCCC2,Cc1ccccc1,mol_6052_solute_opt,mol_6052_solvent_opt,50,35,278.15,-1.4380704380820652,Risperidone,toluene
6053.0,O=C(O)CN(CC(=O)O)CP(=O)(O)O,Cc1ccccc1,mol_6053_solute_opt,mol_6053_solvent_opt,50,38,293.15,-2.48177262717942,N-(phosphonomethyl)iminodiacetic acid,toluene
6054.0,O=[N+]([O-])c1cc([N+](=O)[O-])c(-c2c([N+](=O)[O-])cc([N+](=O)[O-])c(-c3c([N+](=O)[O-])cc([N+](=O)[O-])cc3[N+](=O)[O-])c2[N+](=O)[O-])c([N+](=O)[O-])c1,Cc1ccccc1,mol_6054_solute_opt,mol_6054_solvent_opt,50,37,313.15,-3.006524403505923,"2′,2″,4,4′,4″,6,6′,6″-Nonanitro-1,1’:3′,1″-terphenyl (NONA)",toluene
6055.0,O=[N+]([O-])c1cc([N+](=O)[O-])c(-c2c([N+](=O)[O-])cc([N+](=O)[O-])cc2[N+](=O)[O-])c([N+](=O)[O-])c1,Cc1ccccc1,mol_6055_solute_opt,mol_6055_solvent_opt,50,43,313.15,-1.7128223810789616,"2,2′,4,4′,6,6′-Hexanitro-1,1′-biphenyl (HNBP)",toluene
6056.0,Cn1cc([N+](=O)[O-])cn1,Cc1ccccc1,mol_6056_solute_opt,mol_6056_solvent_opt,50,40,283.15,-1.1651768879839952,1-methyl-4-nitropyrazole,toluene
6057.0,Brc1sc(Br)c(Br)c1Br,Cc1ccccc1,mol_6057_solute_opt,mol_6057_solvent_opt,50,45,278.05,-0.5762996838293483,"2,3,4,5-tetrabromothiophene",toluene
6058.0,COc1cc(Cl)c(OC)cc1N,Cc1ccccc1,mol_6058_solute_opt,mol_6058_solvent_opt,50,45,277.65,-1.203733025317514,"4-chloro-2,5-dimethoxyaniline",toluene
6059.0,COc1cc([N+](=O)[O-])c(OC)cc1Cl,Cc1ccccc1,mol_6059_solute_opt,mol_6059_solvent_opt,50,43,277.45,-1.0286770754816752,"4-chloro-2,5-dimethoxynitrobenzene",toluene
6060.0,O=[N+]([O-])c1nonc1-c1no[n+]([O-])c1-c1nonc1[N+](=O)[O-],Cc1ccccc1,mol_6060_solute_opt,mol_6060_solvent_opt,50,37,298.15,-0.9826283614976872,"3,4-bis(3-nitrofurazan-4-yl)furoxan",toluene
6061.0,O=[N+]([O-])c1cccc2cccc([N+](=O)[O-])c12,Cc1ccccc1,mol_6061_solute_opt,mol_6061_solvent_opt,50,43,273.15,-1.942238584316989,"1,8-dinitronaphthalene",toluene
6062.0,O=C1NC(=O)c2ccccc21,Cc1ccccc1,mol_6062_solute_opt,mol_6062_solvent_opt,50,46,283.15,-2.618462463422539,Phthalimide,toluene
6063.0,CCOC(=O)Cc1c(C(=O)OCC)sc(N)c1C#N,Cc1ccccc1,mol_6063_solute_opt,mol_6063_solvent_opt,50,32,273.15,-2.413020650016251,Ethyl 5-amino-4-cyano-3-(2-ethoxy-2-oxoethyl)-2-thiophenecarboxylate,toluene
6064.0,N=C(Nc1ccccc1)Nc1ccccc1,Cc1ccccc1,mol_6064_solute_opt,mol_6064_solvent_opt,50,41,273.15,-1.895399144723399,"1,3-diphenylguanidine",toluene
6065.0,C#CC(C)(C)NC(=O)c1cc(Cl)cc(Cl)c1,Cc1ccccc1,mol_6065_solute_opt,mol_6065_solvent_opt,50,43,278.15,-1.7658763826071446,Pronamide,toluene
6066.0,O=[N+]([O-])c1ccc(O)c2ncccc12,Cc1ccccc1,mol_6066_solute_opt,mol_6066_solvent_opt,50,48,278.15,-1.6594373375580782,5-nitro-8-hydroxyquinoline,toluene
6067.0,Cc1cccc([N+](=O)[O-])c1N,Cc1ccccc1,mol_6067_solute_opt,mol_6067_solvent_opt,50,43,278.15,-0.634905873593052,2-methyl-6-nitroaniline,toluene
6068.0,Nc1ccc([N+](=O)[O-])cc1[N+](=O)[O-],Cc1ccccc1,mol_6068_solute_opt,mol_6068_solvent_opt,50,40,278.15,-2.500850216593057,"2,4-dinitroaniline",toluene
6069.0,Cc1cc(C(=O)O)ccc1[N+](=O)[O-],Cc1ccccc1,mol_6069_solute_opt,mol_6069_solvent_opt,50,44,283.15,-0.796620031996848,3-methyl-4-nitrobenzoic acid,toluene
6070.0,CC1=NN(c2ccc(C)cc2)C(=O)C1,Cc1ccccc1,mol_6070_solute_opt,mol_6070_solvent_opt,50,44,278.15,-1.021727731424721,"2,4-dihydro-5-methyl-2-(4-methylphenyl)-3H-pyrazol-3-one",toluene
6071.0,O=C(O)c1ccccc1Nc1ccccc1,Cc1ccccc1,mol_6071_solute_opt,mol_6071_solvent_opt,50,43,283.15,-1.643521697202048,N-phenylanthranilic acid,toluene
6072.0,O=Cc1ccc([N+](=O)[O-])cc1,Cc1ccccc1,mol_6072_solute_opt,mol_6072_solvent_opt,50,44,273.15,-0.7275647369638162,4-nitrobenzaldehyde,toluene
6073.0,CC(C)(C)[C@H](O)[C@H](Cc1ccc(Cl)cc1)n1cncn1,Cc1ccccc1,mol_6073_solute_opt,mol_6073_solvent_opt,50,43,278.15,-0.381743163471024,Paclobutrazol,toluene
6074.0,Cn1cnc([N+](=O)[O-])c1Cl,Cc1ccccc1,mol_6074_solute_opt,mol_6074_solvent_opt,50,41,283.15,-1.7329952222908742,5-chloro-1-methyl-4-nitroimidazole,toluene
6075.0,CC(C)C(=O)OCC(=O)[C@@]12O[C@H](C3CCCCC3)O[C@@H]1C[C@H]1[C@@H]3CCC4=CC(=O)C=C[C@]4(C)[C@H]3[C@@H](O)C[C@@]12C,Cc1ccccc1,mol_6075_solute_opt,mol_6075_solvent_opt,50,31,278.15,-0.5336570793660197,Ciclesonide,toluene
6076.0,COc1cc(Cl)nc(N)n1,Cc1ccccc1,mol_6076_solute_opt,mol_6076_solvent_opt,50,49,273.15,-2.1755441415580195,2-amino-4-chloro-6-methoxypyrimidine,toluene
6077.0,Cc1cc([N+](=O)[O-])ccc1N,Cc1ccccc1,mol_6077_solute_opt,mol_6077_solvent_opt,50,44,278.15,-1.8168724861490009,2-methyl-4-nitroaniline,toluene
6078.0,O=Cc1cccc([N+](=O)[O-])c1,Cc1ccccc1,mol_6078_solute_opt,mol_6078_solvent_opt,50,43,273.15,0.0075949859068846,3-nitrobenzaldehyde,toluene
6079.0,Nc1ccc([N+](=O)[O-])cc1N,Cc1ccccc1,mol_6079_solute_opt,mol_6079_solvent_opt,50,43,283.15,-3.501759830242593,"4-nitro-1,2-phenylenediamine",toluene
6080.0,Nc1cc(Cl)ccc1C(=O)O,Cc1ccccc1,mol_6080_solute_opt,mol_6080_solvent_opt,50,43,278.15,-2.887188913446595,2-amino-4-chlorobenzoic acid,toluene
6081.0,CC(C)(C)C(O)(CCc1ccc(Cl)cc1)Cn1cncn1,Cc1ccccc1,mol_6081_solute_opt,mol_6081_solvent_opt,50,43,278.15,-0.6741339571355164,Tebuconazole,toluene
6082.0,CC(C)c1ncc[nH]1,Cc1ccccc1,mol_6082_solute_opt,mol_6082_solvent_opt,50,50,278.15,-0.6778363501521772,2-isopropylimidazole,toluene
6083.0,Nc1ccc(N)c([N+](=O)[O-])c1,Cc1ccccc1,mol_6083_solute_opt,mol_6083_solvent_opt,50,42,283.15,-2.502418091697097,2-nitro-p-phenylenediamine,toluene
6084.0,Cc1ccc(N)c([N+](=O)[O-])c1,Cc1ccccc1,mol_6084_solute_opt,mol_6084_solvent_opt,50,48,278.15,-0.9406120219363556,4-methyl-2-nitroaniline,toluene
6085.0,Cc1cc(C)[nH]n1,Cc1ccccc1,mol_6085_solute_opt,mol_6085_solvent_opt,50,46,283.15,-0.4769522134581524,"3,5-dimethylpyrazole",toluene
6086.0,CCCCCCCCCCCCCCCCCCCCCCCCCCCCO,Cc1ccccc1,mol_6086_solute_opt,mol_6086_solvent_opt,50,38,298.2,-1.881507319319768,Octacosanol,toluene
6087.0,c1ccc(-c2nnn[nH]2)cc1,Cc1ccccc1,mol_6087_solute_opt,mol_6087_solvent_opt,50,42,283.15,-3.623392822291728,5-phenyltetrazole,toluene
6088.0,S=c1[nH]c2ccccc2s1,Cc1ccccc1,mol_6088_solute_opt,mol_6088_solvent_opt,50,42,273.15,-1.734203867434273,2-mercaptobenzothiazole,toluene
6089.0,COc1ccccc1N1CCN(CC(O)COc2cccc3ccccc23)CC1,Cc1ccccc1,mol_6089_solute_opt,mol_6089_solvent_opt,50,39,273.15,-1.2872567556725252,Naftopidil,toluene
6090.0,Cc1ccc(NC(=O)c2ccc(CN3CCN(C)CC3)cc2)cc1Nc1nccc(-c2cccnc2)n1,Cc1ccccc1,mol_6090_solute_opt,mol_6090_solvent_opt,50,26,273.15,-2.101976162610113,Imatinib,toluene
6091.0,CC(C)Oc1ccc2c(=O)c(-c3ccccc3)coc2c1,Cc1ccccc1,mol_6091_solute_opt,mol_6091_solvent_opt,50,41,278.15,-0.9580087723512576,Ipriflavone,toluene
6092.0,Clc1ncnc2[nH]ccc12,Cc1ccccc1,mol_6092_solute_opt,mol_6092_solvent_opt,50,47,278.15,-2.1117450847425188,6-chloro-7-azapurine,toluene
6093.0,O=c1[nH]c2cc(Cl)ccc2o1,Cc1ccccc1,mol_6093_solute_opt,mol_6093_solvent_opt,50,44,283.15,-2.0043793018374947,Chlorzoxazone,toluene
6094.0,CC(C)OC(=O)[C@H](C)N[P@](=O)(Oc1ccccc1)Oc1c(F)c(F)c(F)c(F)c1F,Cc1ccccc1,mol_6094_solute_opt,mol_6094_solvent_opt,50,29,278.15,-1.436352953092303,SOV-I2,toluene
6095.0,O=[N+]([O-])c1cc([N+](=O)[O-])c(Cl)c([N+](=O)[O-])c1Cl,Cc1ccccc1,mol_6095_solute_opt,mol_6095_solvent_opt,50,41,298.15,-0.135671512980795,"1,3-dichloro-2,4,6-trinitrobenzene",toluene
6096.0,O=c1c2ccccc2sc2ccccc12,Cc1ccccc1,mol_6096_solute_opt,mol_6096_solvent_opt,50,38,292.15,-1.452691487633585,9H-thioxanthen-9-one,toluene
6097.0,O=C(O)COc1ccc(Cl)cc1Cl,Cc1ccccc1,mol_6097_solute_opt,mol_6097_solvent_opt,50,43,294.15,-1.954560312159284,"2,4-dichlorophenoxyacetic acid",toluene
6098.0,COc1c(NS(=O)(=O)c2ccc(C)cc2)cc(-c2ccc3ncnc(N4CCOCC4)c3c2)cc1C(N)=O,Cc1ccccc1,mol_6098_solute_opt,mol_6098_solvent_opt,50,32,288.15,-3.6416027786648,2-methoxy-3-(4-methylphenylsulfonamido)-5-(4-morpholinoquinazolin-6-yl)benzamide,toluene
6099.0,COc1c(NS(=O)(=O)c2ccc(F)cc2)cc(-c2ccc3nccc(N4CCOCC4)c3c2)cc1C(N)=O,Cc1ccccc1,mol_6099_solute_opt,mol_6099_solvent_opt,50,31,288.15,-4.259543656510838,3-(4-fluorophenylsulfonamido)-2-methoxy-5-(4-morpholinoquinolin-6-yl)benzamide,toluene
6100.0,COc1c(NS(=O)(=O)c2ccc(F)cc2)cc(-c2ccc3ncnc(N4CCOCC4)c3c2)cc1C(N)=O,Cc1ccccc1,mol_6100_solute_opt,mol_6100_solvent_opt,50,37,288.15,-4.0026046241638245,3-(4-fluorophenylsulfonamido)-2-methoxy-5-(4-morpholinoquinazolin-6-yl)benzamide,toluene
6101.0,O=P(NC1CCCCC1)(Oc1ccccc1)Oc1ccccc1,Cc1ccccc1,mol_6101_solute_opt,mol_6101_solvent_opt,50,38,293.15,-0.2704115691595959,Cyclohexyl-phosphoramidic acid diphenyl ester,toluene
6102.0,CCOC(=O)Cc1c(C(=O)OCC)sc(N(CC(=O)OCC)CC(=O)OCC)c1C#N,Cc1ccccc1,mol_6102_solute_opt,mol_6102_solvent_opt,50,35,283.15,-0.9316175752921634,Tetraethyl ranelate,toluene
6103.0,O=[N+]([O-])c1cccc2c([N+](=O)[O-])cccc12,Cc1ccccc1,mol_6103_solute_opt,mol_6103_solvent_opt,50,40,273.15,-2.182614967019128,"1,5-dinitro-naphthalen",toluene
6104.0,C=CC(=O)NCO,Cc1ccccc1,mol_6104_solute_opt,mol_6104_solvent_opt,50,43,279.75,-2.418013100498583,N-hydroxymethyl acrylamide,toluene
6105.0,Cc1cnc(N)s1,Cc1ccccc1,mol_6105_solute_opt,mol_6105_solvent_opt,50,42,278.15,-0.9769185577501992,2-amino-5-methylthiazole,toluene
6106.0,O=Cc1ccc(O)cc1,Cc1ccccc1,mol_6106_solute_opt,mol_6106_solvent_opt,50,46,278.15,-2.028432656843122,4-hydroxybenzaldehyde,toluene
6107.0,FC(F)(F)c1cccnc1Cl,Cc1ccccc1,mol_6107_solute_opt,mol_6107_solvent_opt,50,47,273.15,0.7143313177208059,2-chloro-3-(trifluoromethyl)pyridine,toluene
6108.0,NCCCCCCN,Cc1ccccc1,mol_6108_solute_opt,mol_6108_solvent_opt,50,41,278.15,0.1621675420227933,"1,6-hexanediamine",toluene
6109.0,Cc1ccc2c(c1)C(=O)OC2=O,Cc1ccccc1,mol_6109_solute_opt,mol_6109_solvent_opt,50,36,278.15,-0.1764063210265117,4-methylphthalic anhydride,toluene
6110.0,C/C(=C/C(C)=N/c1c(C(C)C)cccc1C(C)C)Nc1c(C(C)C)cccc1C(C)C,Cc1ccccc1,mol_6110_solute_opt,mol_6110_solvent_opt,50,34,268.15,-0.2584122548722302,"N-(4-((2,6-Diisopropylphenyl)imino)pent-2-en-2-yl)-2,6-diisopropylaniline",toluene
6111.0,CCc1cccc(CC)c1/N=C(C)/C=C(/C)Nc1c(CC)cccc1CC,Cc1ccccc1,mol_6111_solute_opt,mol_6111_solvent_opt,50,42,268.15,0.2211416292986296,"N-(4-((2,6-diethylphenyl)imino)pent-2-en-2-yl)-2,6-diethylaniline",toluene
6112.0,c1ccc(-c2cc3ccccc3[nH]2)cc1,Cc1ccccc1,mol_6112_solute_opt,mol_6112_solvent_opt,50,41,289.05,-1.0612208232640232,2-phenyl-1H-indole,toluene
6113.0,Nc1ccc(S(N)(=O)=O)cc1,Cc1ccccc1,mol_6113_solute_opt,mol_6113_solvent_opt,50,48,278.15,-4.45130416634296,Sulfanilamide,toluene
6114.0,CCC(CO)(CO)C(=O)O,Cc1ccccc1,mol_6114_solute_opt,mol_6114_solvent_opt,50,48,298.15,-2.437590740147606,"2,2-bis(hydroxymethyl)butyric acid",toluene
6115.0,Cc1ccc(S(=O)(=O)NC(=O)NN2CC3CCCC3C2)cc1,Cc1ccccc1,mol_6115_solute_opt,mol_6115_solvent_opt,50,44,278.15,-2.5322074723821486,Gliclazide,toluene
6116.0,CCc1cccc2c3c([nH]c12)C(CC)(CC(=O)O)OCC3,Cc1ccccc1,mol_6116_solute_opt,mol_6116_solvent_opt,50,40,278.15,-1.949699758746672,Etodolac,toluene
6117.0,Cn1nc([N+](=O)[O-])c([N+](=O)[O-])c1[N+](=O)[O-],Cc1ccccc1,mol_6117_solute_opt,mol_6117_solvent_opt,50,41,283.15,-1.816505733035204,"1-methyl-3,4,5-trinitropyrazole",toluene
6118.0,CC(=O)[C@H]1CC[C@H]2[C@@H]3CCC4=CC(=O)CC[C@]4(C)[C@H]3CC[C@]12C,Cc1ccccc1,mol_6118_solute_opt,mol_6118_solvent_opt,50,40,278.15,-0.0820614988713859,Progesterone,toluene
6119.0,Oc1ccccc1/C=N/CC/N=C/c1ccccc1O,Cc1ccccc1,mol_6119_solute_opt,mol_6119_solvent_opt,50,41,278.15,-1.0390251517701223,Salen,toluene
6120.0,O=C(O)c1ccco1,Cc1ccccc1,mol_6120_solute_opt,mol_6120_solvent_opt,50,46,283.15,-1.3207176188365848,2-furancarboxylic acid,toluene
6121.0,CN1CCN(C2=Nc3cc(Cl)ccc3Nc3ccccc32)CC1,Cc1ccccc1,mol_6121_solute_opt,mol_6121_solvent_opt,50,43,283.15,-1.4731718285030082,Clozapine,toluene
6122.0,CC1Cc2ccccc2N1NC(=O)c1ccc(Cl)c(S(N)(=O)=O)c1,Cc1ccccc1,mol_6122_solute_opt,mol_6122_solvent_opt,50,31,278.15,-4.38041773442789,Indapamide,toluene
6123.0,O=[N+]([O-])c1cc[nH]n1,Cc1ccccc1,mol_6123_solute_opt,mol_6123_solvent_opt,50,48,283.15,-1.8509595950895683,3-nitro-1H-pyrazole,toluene
6124.0,CC(=O)Nc1ccc(CC(=O)O)cc1,Cc1ccccc1,mol_6124_solute_opt,mol_6124_solvent_opt,50,47,278.15,-4.600873671226821,Actarit,toluene
6125.0,CC(=CC(C)=Nc1c(C)cccc1C)Nc1c(C)cccc1C,Cc1ccccc1,mol_6125_solute_opt,mol_6125_solvent_opt,50,33,273.15,0.5419804596973391,"N-{3-[(2,6-Dimethylphenyl)amino]-1-methyl-2-buten-1-ylidene}-2,6-dimethylbenzenamine",toluene
6126.0,O=C(O)CCC(=O)c1ccc(-c2ccccc2)cc1,Cc1ccccc1,mol_6126_solute_opt,mol_6126_solvent_opt,50,37,278.15,-3.417973363241372,Fenbufen,toluene
6127.0,CC(=O)c1c(C)c2cnc(Nc3ccc(N4CCNCC4)cn3)nc2n(C2CCCC2)c1=O,Cc1ccccc1,mol_6127_solute_opt,mol_6127_solvent_opt,50,32,293.15,-3.352526430312106,Palbociclib,toluene
6128.0,O=c1c2ccccc2sc2ccc(Cl)cc12,Cc1ccccc1,mol_6128_solute_opt,mol_6128_solvent_opt,50,43,289.65,-1.0595323912429755,2-chlorothioxanthone (CTX),toluene