pair_id,SMILES_Solute,SMILES_Solvent,Solute_name,Solvent_name,Total_conformers,Filtered_conformers,Temperature_K,LogS,Compound_Name,Solvent
5747.0,NC(N)=NC(N)=NCCc1ccccc1,CC#N,mol_5747_solute_opt,mol_5747_solvent_opt,50,21,278.15,-2.385476508024772,Phenformin,acetonitrile
5748.0,CN(C)Cc1c[nH]c2ccccc12,CC#N,mol_5748_solute_opt,mol_5748_solvent_opt,50,27,273.15,-1.055255214492156,Gramine,acetonitrile
5749.0,Nc1ccc(Cl)cc1[N+](=O)[O-],CC#N,mol_5749_solute_opt,mol_5749_solvent_opt,50,40,278.15,-0.1821668620736877,4-chloro-2-nitroaniline,acetonitrile
5750.0,COc1cc([N+](=O)[O-])ccc1N,CC#N,mol_5750_solute_opt,mol_5750_solvent_opt,50,32,278.15,-0.6338415849808825,2-methoxy-4-nitroaniline,acetonitrile
5751.0,O=Cc1ccc(O)c(Br)c1,CC#N,mol_5751_solute_opt,mol_5751_solvent_opt,50,37,278.15,-0.85394603638303,3-bromo-4-hydroxybenzaldehyde,acetonitrile
5752.0,Cc1c(Br)cccc1C(=O)O,CC#N,mol_5752_solute_opt,mol_5752_solvent_opt,50,38,278.15,-1.1962430298728346,3-bromo-2-methylbenzoic acid,acetonitrile
5753.0,CC1(C)NC(=O)NC1=O,CC#N,mol_5753_solute_opt,mol_5753_solvent_opt,50,38,283.15,-0.6189570574065968,"5,5-dimethylhydantoin",acetonitrile
5754.0,ON(Cc1ccccc1)Cc1ccccc1,CC#N,mol_5754_solute_opt,mol_5754_solvent_opt,50,23,273.15,-1.5242512506908148,"N,N-dibenzylhydroxylamine",acetonitrile
5755.0,Cc1nc(CCl)nc2ccccc12,CC#N,mol_5755_solute_opt,mol_5755_solvent_opt,50,28,281.15,-0.002341636558957,2-chloromethyl-4-methylquinazoline,acetonitrile
5756.0,CC(=O)N[C@@H](CC(C)C)C(=O)O,CC#N,mol_5756_solute_opt,mol_5756_solvent_opt,50,28,283.15,-1.8609681054545248,N-acetyl-L-leucine,acetonitrile
5757.0,O=c1[nH]c2ccccc2c(=O)o1,CC#N,mol_5757_solute_opt,mol_5757_solvent_opt,50,31,288.15,-1.2383298415120252,Isatoic anhydride,acetonitrile
5758.0,O=[N+]([O-])N1CN([N+](=O)[O-])CN([N+](=O)[O-])CN([N+](=O)[O-])C1,CC#N,mol_5758_solute_opt,mol_5758_solvent_opt,50,32,298.15,-1.3417844219573876,Cyclotetramethylenetetranitramine (HMX),acetonitrile
5759.0,CC(=O)NC1(C)CCC2CC1C(C)=NC2(C)C,CC#N,mol_5759_solute_opt,mol_5759_solvent_opt,50,18,298.15,-0.3012094733521962,"8-acetamide-2,4,4,8-tetramethyl-3-azabicyclo[3.3.1]non-2-ene perchlorate",acetonitrile
5760.0,C[C@@H]1CC[C@H]2[C@@H](C)C(=O)O[C@@H]3O[C@@]4(C)CC[C@@H]1[C@]32OO4,CC#N,mol_5760_solute_opt,mol_5760_solvent_opt,50,20,284.15,-1.7898378882205783,Artemisinin,acetonitrile
5761.0,O=C(O)CCP(=O)(O)c1ccccc1,CC#N,mol_5761_solute_opt,mol_5761_solvent_opt,50,21,293.16,-2.941772707582208,2-carboxyethylphenylphosphinic acid,acetonitrile
5762.0,O=P1(O)OCC2(CO1)COP(=O)(O)OC2,CC#N,mol_5762_solute_opt,mol_5762_solvent_opt,50,26,309.35,-1.9515397036695488,"3,9-dihydroxy-2,4,8,10-tetraoxa-3,9-diphosphaspiro-[5.5]-undecane-3,9-dioxide",acetonitrile
5763.0,O=P1(Oc2ccccc2)OCC2(CO1)COP(=O)(Oc1ccccc1)OC2,CC#N,mol_5763_solute_opt,mol_5763_solvent_opt,50,20,293.31,-1.5262390050058,"3,9-diphenoxy-2,4,8,10-tetraoxa-3,9-diphosphaspiro-[5.5]-undecane-3,9-dioxide",acetonitrile
5764.0,CCCCOC(=O)c1ccc(O)cc1,CC#N,mol_5764_solute_opt,mol_5764_solvent_opt,50,24,281.05,0.8657243323665404,Butyl paraben,acetonitrile
5765.0,O=C1C=CC(=O)N1c1cc(F)c(Br)c(F)c1,CC#N,mol_5765_solute_opt,mol_5765_solvent_opt,50,33,291.95,-1.2708359304313477,"N-[(4-bromo-3,5-difluorine)-phenyl]maleimide",acetonitrile
5766.0,CO/N=C(\C(=O)Sc1nc2ccccc2s1)c1csc(N)n1,CC#N,mol_5766_solute_opt,mol_5766_solvent_opt,50,28,279.45,-2.377914544032917,"(α,Z)-2-Amino-α-(methoxyimino)-4-thiazole-ethanethioic Acid S-2-Benzothiazolyl Ester",acetonitrile
5767.0,ClP1(Cl)=NP(Cl)(Cl)=NP(Cl)(Cl)=N1,CC#N,mol_5767_solute_opt,mol_5767_solvent_opt,50,42,293.15,-1.4639121882317117,Hexachlorocyclotriphosphazene,acetonitrile
5768.0,c1ccc(OP2(Oc3ccccc3)=NP(Oc3ccccc3)(Oc3ccccc3)=NP(Oc3ccccc3)(Oc3ccccc3)=N2)cc1,CC#N,mol_5768_solute_opt,mol_5768_solvent_opt,50,11,298.25,-1.1192690272857615,Hexaphenoxycyclotriphosphazene,acetonitrile
5769.0,Clc1cc(Cl)c(OCCBr)c(Cl)c1,CC#N,mol_5769_solute_opt,mol_5769_solvent_opt,50,31,278.2,-0.5389624994950946,"2-(2,4,6-trichlorophenoxy)ethyl bromide",acetonitrile
5770.0,c1ccc2c(c1)OP1(=NP3(=NP4(=N1)Oc1ccccc1O4)Oc1ccccc1O3)O2,CC#N,mol_5770_solute_opt,mol_5770_solvent_opt,50,18,293.25,-2.653628459681892,Tris(o-phenylenedioxy)cyclotriphosphazene,acetonitrile
5771.0,Cc1cc(C)c(C(=O)P(=O)(C(=O)c2c(C)cc(C)cc2C)c2ccccc2)c(C)c1,CC#N,mol_5771_solute_opt,mol_5771_solvent_opt,50,11,295.4,-1.0537237096334915,"Bis(2,4,6-trimethylbenzoyl)phenylphosphine oxide",acetonitrile
5772.0,C=C1CC[C@H](O)C/C1=C/C=C1\CCC[C@]2(C)[C@@H]([C@H](C)CCCC(C)C)CC[C@@H]12,CC#N,mol_5772_solute_opt,mol_5772_solvent_opt,50,17,248.2,-2.811736878562179,Vitamin D3,acetonitrile
5773.0,CC(=O)N1CN(C(C)=O)CN(C(C)=O)C1,CC#N,mol_5773_solute_opt,mol_5773_solvent_opt,50,28,298.0,-0.0219300437968969,"1,3,5-Triacetyl-hexahydro-s-triazine",acetonitrile
5774.0,CC1(C)COP(=O)(C(C)(C)O)OC1,CC#N,mol_5774_solute_opt,mol_5774_solvent_opt,50,26,278.65,-1.4698723072384687,"1,3,2-dioxaphosphorinane-2-methanol-α,α-5,5-tetramethyl 2-oxide",acetonitrile
5775.0,O=P12OCC(CO)(CO1)CO2,CC#N,mol_5775_solute_opt,mol_5775_solvent_opt,50,38,293.35,-0.7381969403579497,"4-(hydroxymethyl)-1-oxido-2,6,7-trioxa-1-phosphabicyclo[2.2.2]octane",acetonitrile
5776.0,CCN1CCN(c2cc3c(cc2F)c(=O)c(C(=O)O)cn3C2CC2)CC1,CC#N,mol_5776_solute_opt,mol_5776_solvent_opt,50,11,303.15,-1.6708348172584964,Enrofloxacin,acetonitrile
5777.0,O=C1N2CN3C(=O)N([N+](=O)[O-])C4C3N(CN3C(=O)N([N+](=O)[O-])C(C23)N1[N+](=O)[O-])C(=O)N4[N+](=O)[O-],CC#N,mol_5777_solute_opt,mol_5777_solvent_opt,50,22,293.15,-2.5423652616365926,Tetranitrodimerglycoluril (TNDGU),acetonitrile
5778.0,O=C1Nc2ccccc2C1=O,CC#N,mol_5778_solute_opt,mol_5778_solvent_opt,50,32,283.15,-1.0885012897716295,Isatin,acetonitrile
5779.0,CC1(C)COP(=O)(C(C)(O)c2ccccc2)OC1,CC#N,mol_5779_solute_opt,mol_5779_solvent_opt,50,19,283.25,-1.5549513895857598,"1,3,2-dioxaphosphorinane-2-methanol-α,5,5-trimethyl-α-phenyl-2-oxide",acetonitrile
5780.0,Nc1ccc(S(=O)(=O)O)cc1,CC#N,mol_5780_solute_opt,mol_5780_solvent_opt,50,38,278.15,-2.590247480872242,Sulfanilic acid,acetonitrile
5781.0,O=C1O[C@H]([C@@H](O)CO)C(O)=C1O,CC#N,mol_5781_solute_opt,mol_5781_solvent_opt,50,32,293.0,-2.418735451442187,Vitamin C,acetonitrile
5782.0,Clc1ccc2c(Cl)ccnc2c1,CC#N,mol_5782_solute_opt,mol_5782_solvent_opt,50,39,299.8,-0.941319289429041,"4,7-dichloroquinoline",acetonitrile
5783.0,Cn1[nH]c(=O)c(=O)[nH]c1=S,CC#N,mol_5783_solute_opt,mol_5783_solvent_opt,50,40,293.21,-1.3744305219399389,Thiotriazinone,acetonitrile
5784.0,C[C@H](CS)C(=O)N1CCC[C@H]1C(=O)O,CC#N,mol_5784_solute_opt,mol_5784_solvent_opt,50,26,278.15,-0.7469049670706898,Captopril,acetonitrile
5785.0,C=CC(=O)Nc1cc(F)c(Br)c(F)c1,CC#N,mol_5785_solute_opt,mol_5785_solvent_opt,50,30,284.65,-0.9340189055692786,"N-[(4-bromo-3,5-difluorine)phenyl]acrylamide",acetonitrile
5786.0,CC(C)(C)C(=O)C(Oc1ccc(Cl)cc1)n1cncn1,CC#N,mol_5786_solute_opt,mol_5786_solvent_opt,50,27,288.15,-0.6701063174143381,Triadimefon,acetonitrile
5787.0,O=C(C(=O)c1ccccc1)c1ccccc1,CC#N,mol_5787_solute_opt,mol_5787_solvent_opt,50,28,298.15,0.1082267203822121,Benzil,acetonitrile
5788.0,CC(=O)c1cnccn1,CN(C)C=O,mol_5788_solute_opt,mol_5788_solvent_opt,50,46,268.35,0.0762534613222264,Acetylpyrazine,DMF
5789.0,CC(C)CC(N)C(=O)O,CN(C)C=O,mol_5789_solute_opt,mol_5789_solvent_opt,50,39,278.15,-2.838681899952033,DL-leucine,DMF
5790.0,CC(O)C(N)C(=O)O,CN(C)C=O,mol_5790_solute_opt,mol_5790_solvent_opt,50,40,278.15,-1.9766847985050773,DL-threonine,DMF
5791.0,CCC(C)C(N)C(=O)O,CN(C)C=O,mol_5791_solute_opt,mol_5791_solvent_opt,50,41,278.15,-2.5182946248936604,DL-Isoleucine,DMF
5792.0,NC(Cc1ccc(O)cc1)C(=O)O,CN(C)C=O,mol_5792_solute_opt,mol_5792_solvent_opt,50,36,278.15,-3.388747202959048,DL-tyrosine,DMF
5793.0,Brc1cc(Br)cc(Br)c1,CN(C)C=O,mol_5793_solute_opt,mol_5793_solvent_opt,50,49,288.15,-0.8809300636476836,"1,3,5-tribromobenzene",DMF
5794.0,O=[N+]([O-])c1c[nH]cn1,CN(C)C=O,mol_5794_solute_opt,mol_5794_solvent_opt,50,46,278.15,-0.5822172943609059,4-nitroimidazole,DMF
5795.0,O=[N+]([O-])c1cc([N+](=O)[O-])c(Cl)c(Cl)c1Cl,CN(C)C=O,mol_5795_solute_opt,mol_5795_solvent_opt,50,45,278.15,0.5024544429137524,"2,3,4-trichloro-1,5-dinitrobenzene",DMF
5796.0,C/C=C/C(=O)O,CN(C)C=O,mol_5796_solute_opt,mol_5796_solvent_opt,50,45,278.15,1.0117918609523338,Crotonic acid,DMF
5797.0,Nc1ccc(Oc2ccc(N)cc2)cc1,CN(C)C=O,mol_5797_solute_opt,mol_5797_solvent_opt,50,39,283.15,0.1828693007017694,"4,4′-oxydianiline",DMF
5798.0,O=C1C=CC(=O)O1,CN(C)C=O,mol_5798_solute_opt,mol_5798_solvent_opt,50,49,278.15,-0.3948751479639103,Maleic anhydride,DMF
5799.0,Cc1nnc(SCC2=C(C(=O)O)N3C(=O)[C@@H](NC(=O)Cn4cnnn4)[C@H]3SC2)s1,CN(C)C=O,mol_5799_solute_opt,mol_5799_solvent_opt,50,29,278.15,0.346611370787285,Cefazolin acid,DMF
5800.0,NC(N)=C([N+](=O)[O-])[N+](=O)[O-],CN(C)C=O,mol_5800_solute_opt,mol_5800_solvent_opt,50,47,297.15,0.1305639816255906,"1,1-diamino-2,2-dinitroethylene (FOX-7)",DMF
5801.0,O=C1NC(=O)C2C3C=CC(C3)C12,CN(C)C=O,mol_5801_solute_opt,mol_5801_solvent_opt,50,44,278.15,-0.047696588449544,"5-norbornene-2,3-dicarboximide",DMF
5802.0,CC(=O)NS(=O)(=O)c1ccc(N)cc1,CN(C)C=O,mol_5802_solute_opt,mol_5802_solvent_opt,50,40,293.15,-0.4096250645684222,Sulfacetamide,DMF
5803.0,Nc1ccc(S(N)(=O)=O)cc1,CN(C)C=O,mol_5803_solute_opt,mol_5803_solvent_opt,50,39,293.15,-0.6064359070794357,Sulfanilamide,DMF
5804.0,O=C(NC[C@H]1CN(c2ccc(N3CCOCC3=O)cc2)C(=O)O1)c1ccc(Cl)s1,CN(C)C=O,mol_5804_solute_opt,mol_5804_solvent_opt,50,34,278.15,-1.1095232206457315,Rivaroxaban,DMF
5805.0,O=[N+]([O-])c1cc([N+](=O)[O-])c(/C=C/c2c([N+](=O)[O-])cc([N+](=O)[O-])cc2[N+](=O)[O-])c([N+](=O)[O-])c1,CN(C)C=O,mol_5805_solute_opt,mol_5805_solvent_opt,50,38,298.15,-1.6461317710240002,"2,2′,4,4′,6,6′-hexanitrostilbene",DMF
5806.0,C=C(C)[C@@H]1CC[C@]2(CO)CC[C@]3(C)[C@H](CC[C@@H]4[C@@]5(C)CC[C@H](O)C(C)(C)[C@@H]5CC[C@]43C)[C@@H]12,CN(C)C=O,mol_5806_solute_opt,mol_5806_solvent_opt,50,27,293.2,-1.567766847814693,Betulin,DMF
5807.0,C[C@]12CC[C@@H]3c4ccc(O)cc4CC[C@H]3[C@@H]1CCC2=O,CN(C)C=O,mol_5807_solute_opt,mol_5807_solvent_opt,50,35,293.2,-1.837029750987431,Estrone,DMF
5808.0,O=Cc1ccc(C=O)cc1,CN(C)C=O,mol_5808_solute_opt,mol_5808_solvent_opt,50,46,273.15,-0.0408012203336847,Terephthaldialdehyde,DMF
5809.0,Cc1cc(C(=O)O)ccc1[N+](=O)[O-],CN(C)C=O,mol_5809_solute_opt,mol_5809_solvent_opt,50,43,283.15,-0.021550245695109,3-methyl-4-nitrobenzoic acid,DMF
5810.0,Cc1ccc(S(C)(=O)=O)cc1,CN(C)C=O,mol_5810_solute_opt,mol_5810_solvent_opt,50,37,278.15,0.2659773836687217,1-methyl-4-(methylsulfonyl)benzene,DMF
5811.0,O=Cc1ccc([N+](=O)[O-])cc1,CN(C)C=O,mol_5811_solute_opt,mol_5811_solvent_opt,50,47,273.15,0.1867775877862722,4-nitrobenzaldehyde,DMF
5812.0,COc1cc(Cl)nc(N)n1,CN(C)C=O,mol_5812_solute_opt,mol_5812_solvent_opt,50,44,273.15,-0.1604646307691723,2-amino-4-chloro-6-methoxypyrimidine,DMF
5813.0,O=Cc1cccc([N+](=O)[O-])c1,CN(C)C=O,mol_5813_solute_opt,mol_5813_solvent_opt,50,46,273.15,0.8026505724145934,3-nitrobenzaldehyde,DMF
5814.0,CC(=O)[C@@]1(O)CC[C@H]2[C@@H]3CCC4=CC(=O)CC[C@]4(C)[C@H]3[C@@H](O)C[C@@]21C,CN(C)C=O,mol_5814_solute_opt,mol_5814_solvent_opt,50,30,278.15,-0.0318420165532499,"11α,17α-dihydroxy-4-pregnene-3,20-dione",DMF
5815.0,C[C@@H]1CC[C@@]2(OC1)O[C@H]1C[C@H]3[C@@H]4CC=C5C[C@@H](O)CC[C@]5(C)[C@H]4CC[C@]3(C)[C@H]1[C@@H]2C,CN(C)C=O,mol_5815_solute_opt,mol_5815_solvent_opt,50,31,293.2,-1.833164982338058,Diosgenin,DMF
5816.0,C[C@]12CC[C@@H]3c4ccc(O)cc4CC[C@H]3[C@@H]1C[C@@H](O)[C@@H]2O,CN(C)C=O,mol_5816_solute_opt,mol_5816_solvent_opt,50,39,293.2,-1.8370297509874307,Estriol,DMF
5817.0,Cc1ccc(N)c([N+](=O)[O-])c1,CN(C)C=O,mol_5817_solute_opt,mol_5817_solvent_opt,50,39,278.15,0.1579567314975461,4-methyl-2-nitroaniline,DMF
5818.0,c1ccc(-c2nnn[nH]2)cc1,CN(C)C=O,mol_5818_solute_opt,mol_5818_solvent_opt,50,43,283.15,0.5375573056827121,5-phenyltetrazole,DMF
5819.0,Nc1ncnc2c1ncn2[C@@H]1O[C@H](CO)[C@@H](O)[C@H]1O,CN(C)C=O,mol_5819_solute_opt,mol_5819_solvent_opt,50,34,278.15,-1.2613203077338966,Adenosine,DMF
5820.0,Cc1cc(=O)[nH]c(=S)[nH]1,CN(C)C=O,mol_5820_solute_opt,mol_5820_solvent_opt,50,40,278.15,-0.8053254807932679,6-methyl-2-thiouracil,DMF
5821.0,Nc1ncnc2nc[nH]c12,CN(C)C=O,mol_5821_solute_opt,mol_5821_solvent_opt,50,39,278.15,-1.5968939489817038,Adenine,DMF
5822.0,Clc1ncnc2nc[nH]c12,CN(C)C=O,mol_5822_solute_opt,mol_5822_solvent_opt,50,45,283.15,-0.1130512305059404,6-chloropurine,DMF
5823.0,COC(=O)Nc1nc2ccccc2[nH]1,CN(C)C=O,mol_5823_solute_opt,mol_5823_solvent_opt,50,41,278.15,-1.984413625135378,Carbendazim,DMF
5824.0,N[C@H](Cc1c[nH]c2ccccc12)C(=O)O,CN(C)C=O,mol_5824_solute_opt,mol_5824_solvent_opt,50,38,283.15,-1.025375215725039,D-tryptophan,DMF
5825.0,NC(=NCCCCCCN=C(N)/N=C(\N)Nc1ccc(Cl)cc1)/N=C(\N)Nc1ccc(Cl)cc1,CN(C)C=O,mol_5825_solute_opt,mol_5825_solvent_opt,50,34,283.15,-0.9785294243118392,Chlorhexidine,DMF
5826.0,c1ccc2c(c1)sc1ccccc12,CN(C)C=O,mol_5826_solute_opt,mol_5826_solvent_opt,50,38,289.45,0.2213757182332441,Dibenzothiophene,DMF
5827.0,Cc1c(C(=O)/C=C/c2ccccc2)[n+](=O)c2ccccc2n1[O-],CN(C)C=O,mol_5827_solute_opt,mol_5827_solvent_opt,50,34,283.15,-1.1399471962526335,Quinocetone,DMF
5828.0,O=c1cc(O)c(Cl)c[nH]1,CN(C)C=O,mol_5828_solute_opt,mol_5828_solvent_opt,50,43,283.15,-0.3699546597365736,Gimeracil,DMF
5829.0,Oc1c(Cl)cc(Cl)c2cccnc12,CN(C)C=O,mol_5829_solute_opt,mol_5829_solvent_opt,50,43,293.15,-0.7590358726659686,Chloroxine,DMF
5830.0,O=C1OC(=O)[C@H]2[C@@H]1[C@@H]1C=C[C@H]2C1,CN(C)C=O,mol_5830_solute_opt,mol_5830_solvent_opt,50,41,278.15,0.0642881414632223,"cis-5-norbornene-exo-2,3-dicarboxylic anhydride",DMF
5831.0,CC1(C)S[C@@H]2[C@H](NC(=O)[C@H](N)c3ccc(O)cc3)C(=O)N2[C@H]1C(=O)O,CN(C)C=O,mol_5831_solute_opt,mol_5831_solvent_opt,50,31,278.15,-1.1355420602364052,Amoxicillin,DMF
5832.0,Cc1nnc(C(C)C)n1C1C[C@H]2CC[C@@H](C1)N2CC[C@H](NC(=O)C1CCC(F)(F)CC1)c1ccccc1,CN(C)C=O,mol_5832_solute_opt,mol_5832_solvent_opt,50,26,278.15,-3.344686741175468,Maraviroc,DMF
5833.0,N#Cc1ccc2c(c1)OCO2,CN(C)C=O,mol_5833_solute_opt,mol_5833_solvent_opt,50,47,278.15,0.4382899621182387,Piperonylonitrile,DMF
5834.0,CC(C)Oc1ccc2c(=O)c(-c3ccccc3)coc2c1,CN(C)C=O,mol_5834_solute_opt,mol_5834_solvent_opt,50,33,278.15,-0.4795116981671743,Ipriflavone,DMF
5835.0,O=C(O)CCc1nc(-c2ccccc2)c(-c2ccccc2)o1,CN(C)C=O,mol_5835_solute_opt,mol_5835_solvent_opt,50,33,278.15,0.3170506273422998,Oxaprozin,DMF
5836.0,COC1=CC(=O)C[C@@H](C)[C@]12Oc1c(Cl)c(OC)cc(OC)c1C2=O,CN(C)C=O,mol_5836_solute_opt,mol_5836_solvent_opt,50,32,278.15,-1.1930797525130885,Griseofulvin,DMF
5837.0,O=c1cc(CO)occ1O,CN(C)C=O,mol_5837_solute_opt,mol_5837_solvent_opt,50,42,278.15,0.1543719789373913,Kojic acid,DMF
5838.0,CS(=O)(=O)OCCCCOS(C)(=O)=O,CN(C)C=O,mol_5838_solute_opt,mol_5838_solvent_opt,50,44,278.15,-0.8102184831859582,Busulfan,DMF
5839.0,Cc1cnc(NC(=O)C2=C(O)c3ccccc3S(=O)(=O)N2C)s1,CN(C)C=O,mol_5839_solute_opt,mol_5839_solvent_opt,50,37,293.15,-0.8141670626801021,Meloxicam,DMF
5840.0,COc1ccc2[nH]cc(CCNC(C)=O)c2c1,CN(C)C=O,mol_5840_solute_opt,mol_5840_solvent_opt,50,36,278.15,0.4536425501916095,Melatonin,DMF
5841.0,CN1CCN(C2=Nc3cc(Cl)ccc3Nc3ccccc32)CC1,CN(C)C=O,mol_5841_solute_opt,mol_5841_solvent_opt,50,32,278.15,0.1422644254509859,Clozapine,DMF
5842.0,CC(=O)Nc1ccc(OC(=O)c2ccccc2OC(C)=O)cc1,CN(C)C=O,mol_5842_solute_opt,mol_5842_solvent_opt,50,33,278.15,-0.6304283606492234,Benorilate,DMF
5843.0,CC(CO)(CO)C(=O)O,CN(C)C=O,mol_5843_solute_opt,mol_5843_solvent_opt,50,42,288.15,0.4052440371868484,Dimethylolpropionic acid,DMF
5844.0,CC(=O)c1c(C)c([N+](=O)[O-])c(C(C)(C)C)c([N+](=O)[O-])c1C,CN(C)C=O,mol_5844_solute_opt,mol_5844_solvent_opt,50,33,278.15,0.026978507689345,Musk ketone,DMF
5845.0,CCS(=O)(=O)CCn1c([N+](=O)[O-])cnc1C,CN(C)C=O,mol_5845_solute_opt,mol_5845_solvent_opt,50,33,278.15,-0.2029881568862328,Tinidazole,DMF
5846.0,O=[N+]([O-])c1cc([N+](=O)[O-])c(Cl)c([N+](=O)[O-])c1Cl,CN(C)C=O,mol_5846_solute_opt,mol_5846_solvent_opt,50,40,298.15,0.4647311471954491,"1,3-dichloro-2,4,6-trinitrobenzene",DMF
5847.0,O=S(=O)(c1ccc(O)cc1)c1ccc(O)cc1,CN(C)C=O,mol_5847_solute_opt,mol_5847_solvent_opt,50,36,278.15,0.3458015991423273,"4,4′-dihydroxydiphenylsulfone",DMF
5848.0,CC(=O)Oc1ccccc1C(=O)Nc1ncc([N+](=O)[O-])s1,CN(C)C=O,mol_5848_solute_opt,mol_5848_solvent_opt,50,31,278.15,-0.0270653603603996,Nitazoxanide,DMF
5849.0,CC1(C)[C@@H](O)CC[C@]2(C)[C@H]3C(=O)C=C4[C@@H]5C[C@@](C)(C(=O)O)CC[C@]5(C)CC[C@@]4(C)[C@]3(C)CC[C@@H]12,CN(C)C=O,mol_5849_solute_opt,mol_5849_solvent_opt,50,20,278.15,-0.2080261468805022,18β-glycyrrhetinic acid,DMF
5850.0,Nc1cncc(Cl)n1,CN(C)C=O,mol_5850_solute_opt,mol_5850_solvent_opt,50,45,278.15,-0.9145654965673432,2-amino-6-chloropyrazine,DMF
5851.0,C1=Cc2ccccc2Nc2ccccc21,CN(C)C=O,mol_5851_solute_opt,mol_5851_solvent_opt,50,34,278.15,0.207426433772807,Iminostilbene,DMF
5852.0,CN(C)NC(=O)CCC(=O)O,CN(C)C=O,mol_5852_solute_opt,mol_5852_solvent_opt,50,41,283.15,-0.5563971851903122,Daminozide,DMF
5853.0,CC(=O)C1C(=O)C=C(C)OC1=O,CN(C)C=O,mol_5853_solute_opt,mol_5853_solvent_opt,50,40,288.5,0.0204908711914462,Dehydroacetic acid,DMF
5854.0,CC1COC(Cn2cncn2)(c2ccc(Oc3ccc(Cl)cc3)cc2Cl)O1,CN(C)C=O,mol_5854_solute_opt,mol_5854_solvent_opt,50,34,278.15,-1.2761037421762995,Difenoconazole,DMF
5855.0,CCC(C)n1ncn(-c2ccc(N3CCN(c4ccc(OCC5COC(Cn6cncn6)(c6ccc(Cl)cc6Cl)O5)cc4)CC3)cc2)c1=O,CN(C)C=O,mol_5855_solute_opt,mol_5855_solvent_opt,50,24,298.15,-0.8546299395713233,Itraconazole,DMF
5856.0,CC(=O)OCC(=O)[C@@]1(O)CC[C@H]2[C@@H]3CCC4=CC(=O)C=C[C@]4(C)[C@H]3C(=O)C[C@@]21C,CN(C)C=O,mol_5856_solute_opt,mol_5856_solvent_opt,50,28,301.25,-1.319559838638554,Prednisone acetate,DMF
5857.0,N#CNC(=N)N,CN(C)C=O,mol_5857_solute_opt,mol_5857_solvent_opt,50,47,278.15,0.4715372287085006,2-cyanoguanidine,DMF
5858.0,O=Cc1ccc(O)cc1,CN(C)C=O,mol_5858_solute_opt,mol_5858_solvent_opt,50,44,278.15,0.022941829116086,4-hydroxybenzaldehyde,DMF
5859.0,O=C(O)CNC(=O)c1ccccc1,CN(C)C=O,mol_5859_solute_opt,mol_5859_solvent_opt,50,44,298.15,0.5261040908453516,Hippuric acid,DMF
5860.0,C[C@]12C=CC(=O)C=C1CC[C@@H]1[C@@H]2[C@@H](O)C[C@@]2(C)[C@H]1CC[C@]2(O)C(=O)CO,CN(C)C=O,mol_5860_solute_opt,mol_5860_solvent_opt,50,30,293.2,-0.9704140139686676,Prednisolone,DMF
5861.0,C[C@]12CCC(=O)C=C1CC[C@@H]1[C@@H]2[C@@H](O)C[C@@]2(C)[C@H]1CC[C@]2(O)C(=O)CO,CN(C)C=O,mol_5861_solute_opt,mol_5861_solvent_opt,50,28,293.2,-0.9730986653095872,Hydrocortisone,DMF
5862.0,CC(=O)Nc1cccc(N)c1,CN(C)C=O,mol_5862_solute_opt,mol_5862_solvent_opt,50,41,278.15,-0.4049435921399905,"N-acetyl-1,3-phenylenediamine",DMF
5863.0,OC[C@H]1O[C@@H](Oc2c(O)cc(O)cc2/C=C/c2ccc(O)cc2)[C@H](O)[C@@H](O)[C@@H]1O,CN(C)C=O,mol_5863_solute_opt,mol_5863_solvent_opt,50,26,278.15,-0.7133236779583183,"2,3,5,4′-tetrahydroxystilbene-2-o-β-d-glucoside",DMF
5864.0,O=c1[nH]c2ccccc2n1CCCN1CCC(n2c(=O)[nH]c3cc(Cl)ccc32)CC1,CN(C)C=O,mol_5864_solute_opt,mol_5864_solvent_opt,50,32,278.15,-3.0085754930543263,Domperidone,DMF
5865.0,NC(=O)N/N=C/c1ccc([N+](=O)[O-])o1,CN(C)C=O,mol_5865_solute_opt,mol_5865_solvent_opt,50,41,278.15,-0.5292512346958345,5-nitrofurazone,DMF
5866.0,CCc1ccc2c(c1)C(=O)c1ccccc1C2=O,CN(C)C=O,mol_5866_solute_opt,mol_5866_solvent_opt,50,37,304.15,0.1882848710045094,2-ethylanthraquinone,DMF
5868.0,O=C1Cc2cc(F)ccc2N1,CN(C)C=O,mol_5868_solute_opt,mol_5868_solvent_opt,50,48,278.15,0.5853195976632694,5-fluoro-2-oxindole,DMF
5869.0,Cc1c[nH]c(=O)[nH]c1=O,CN(C)C=O,mol_5869_solute_opt,mol_5869_solvent_opt,50,46,283.15,-0.943498428707005,Thymine,DMF
5870.0,C[C@]12CC[C@@H]3c4ccc(O)cc4CC[C@H]3[C@@H]1CC[C@@H]2O,CN(C)C=O,mol_5870_solute_opt,mol_5870_solvent_opt,50,36,273.15,1.188192558259881,Estradiol,DMF
5871.0,OC[C@H]1O[C@@H](c2ccc(Cl)c(Cc3ccc(O[C@H]4CCOC4)cc3)c2)[C@H](O)[C@@H](O)[C@@H]1O,CN(C)C=O,mol_5871_solute_opt,mol_5871_solvent_opt,50,24,278.15,-1.8114280763560344,Empagliflozin,DMF
5872.0,CC(=O)Oc1ccc(C(c2ccc(OC(C)=O)cc2)c2ccccn2)cc1,CN(C)C=O,mol_5872_solute_opt,mol_5872_solvent_opt,50,37,288.15,-0.297497680109808,Bisacodyl,DMF
5873.0,CC(C)(OOC(C)(C)c1ccccc1)c1ccccc1,CN(C)C=O,mol_5873_solute_opt,mol_5873_solvent_opt,50,35,274.15,0.3763449784196572,Dicumyl peroxide (dcp),DMF
5874.0,O=C1OC(=O)C2C3C=CC(O3)C12,CN(C)C=O,mol_5874_solute_opt,mol_5874_solvent_opt,50,45,278.15,0.1938459863379107,"Exo-3,6-epoxy-1,2,3,6-tetrahydrophthalic anhydride",DMF