pair_id,SMILES_Solute,SMILES_Solvent,Solute_name,Solvent_name,Total_conformers,Filtered_conformers,Temperature_K,LogS,Compound_Name,Solvent
2099.0,C[C@@H](Oc1ccc(Oc2nc3ccc(Cl)cc3o2)cc1)C(=O)N(C)c1ccccc1F,CC(C)O,mol_2099_solute_opt,mol_2099_solvent_opt,50,32,278.15,-1.5111071972354286,Metamifop,isopropanol
2100.0,Cc1nc2n(c(=O)c1CCN1CCC(c3noc4cc(F)ccc34)CC1)CCCC2O,CC(C)O,mol_2100_solute_opt,mol_2100_solvent_opt,50,30,288.15,-3.457663528293981,Paliperidone,isopropanol
2101.0,CC(C(=O)O)c1ccc(CC2CCCC2=O)cc1,CC(C)O,mol_2101_solute_opt,mol_2101_solvent_opt,50,31,283.15,-0.0822982016712379,Loxoprofen,isopropanol
2102.0,O=C(O)c1ccc(Cl)cc1Cl,CC(C)O,mol_2102_solute_opt,mol_2102_solvent_opt,50,47,273.15,-0.2925919212255518,"2,4-dichlorobenzoic acid",isopropanol
2103.0,Cn1nccc1O,CC(C)O,mol_2103_solute_opt,mol_2103_solvent_opt,50,36,278.15,0.0570698245579762,5-hydroxy-1-methylpyrazole,isopropanol
2104.0,Nc1ncccn1,CC(C)O,mol_2104_solute_opt,mol_2104_solvent_opt,50,36,272.65,-1.0342420578915903,2-aminopyrimidine,isopropanol
2105.0,C(=C/c1ccccc1)\CN1CCN(C(c2ccccc2)c2ccccc2)CC1,CC(C)O,mol_2105_solute_opt,mol_2105_solvent_opt,50,31,288.5,-2.074958523859188,Cinnarizine,isopropanol
2106.0,C=C(C)[C@@H]1CC[C@]2(C(=O)O)CC[C@]3(C)[C@H](CC[C@@H]4[C@@]5(C)CCC(=O)C(C)(C)[C@@H]5CC[C@]43C)[C@@H]12,CC(C)O,mol_2106_solute_opt,mol_2106_solvent_opt,50,29,278.15,-1.1490699045681043,Betulonic acid,isopropanol
2107.0,C=C1C[C@]23C[C@H]1CC[C@H]2[C@@]12CC[C@H](O)[C@@](C)(C(=O)O1)[C@H]2[C@@H]3C(=O)O,CC(C)O,mol_2107_solute_opt,mol_2107_solvent_opt,50,32,278.15,-0.0061177525447454,Gibberellin A4,isopropanol
2108.0,O=Cc1ccc2ccccc2c1,CC(C)O,mol_2108_solute_opt,mol_2108_solvent_opt,50,38,283.15,-0.8138996382064483,2-naphthaldehyde,isopropanol
2109.0,CN1C(C(=O)Nc2ccccn2)=C(O)c2sccc2S1(=O)=O,CC(C)O,mol_2109_solute_opt,mol_2109_solvent_opt,50,36,298.15,-3.0888597248782443,Tenoxicam,isopropanol
2110.0,OC[C@@H](O)[C@@H](O[C@H]1O[C@H](CO)[C@@H](O)[C@H](O)[C@H]1O)[C@H](O)[C@@H](O)CO,CC(C)O,mol_2110_solute_opt,mol_2110_solvent_opt,50,27,298.15,-3.607392644200304,Maltitol,isopropanol
2111.0,Clc1cc(Cl)cc(Cl)c1,CC(C)O,mol_2111_solute_opt,mol_2111_solvent_opt,50,46,273.15,-0.7100608684386689,"1,3,5-trichlorobenzene",isopropanol
2112.0,COc1cc(Cc2cnc(N)nc2N)cc(OC)c1OC,CC(C)O,mol_2112_solute_opt,mol_2112_solvent_opt,50,30,293.15,-2.52837267782487,Trimethoprim,isopropanol
2113.0,O=S(=O)(c1ccc(O)cc1)c1ccc(O)cc1,CC(C)O,mol_2113_solute_opt,mol_2113_solvent_opt,50,34,278.15,-2.916442226023479,"4,4′-dihydroxydiphenylsulfone",isopropanol
2114.0,CC(C)(C)c1ccc(OP2OCC3(CO2)COP(Oc2ccc(C(C)(C)C)cc2C(C)(C)C)OC3)c(C(C)(C)C)c1,CC(C)O,mol_2114_solute_opt,mol_2114_solvent_opt,50,23,304.15,-2.4168408728339004,Antioxidant 626,isopropanol
2115.0,O=C(O)c1cc(C(=O)O)cc(C(=O)O)c1,CC(C)O,mol_2115_solute_opt,mol_2115_solvent_opt,50,39,305.77,-1.0379046820136455,"1,3,5-benzenetricarboxylic acid",isopropanol
2116.0,CS(=O)(=O)c1ccc(C=O)cc1,CC(C)O,mol_2116_solute_opt,mol_2116_solvent_opt,50,31,283.15,-2.419791239378386,4-(methylsulfonyl)benzaldehyde,isopropanol
2117.0,CCOc1ncc(C)c2c1[C@H](c1ccc(C#N)cc1OC)C(C(N)=O)=C(C)N2,CC(C)O,mol_2117_solute_opt,mol_2117_solvent_opt,50,29,273.15,-2.5141752997953257,Finerenone,isopropanol
2118.0,O=[N+]([O-])c1cn[nH]c1[N+](=O)[O-],CC(C)O,mol_2118_solute_opt,mol_2118_solvent_opt,50,45,298.15,0.9160556575243244,"3,4-dinitro-1H-pyrazole",isopropanol
2119.0,O=C1NC(=O)c2cc([N+](=O)[O-])ccc21,CC(C)O,mol_2119_solute_opt,mol_2119_solvent_opt,50,43,273.15,-2.10588391096116,4-nitrophthalimide,isopropanol
2120.0,O=C1NC23NC(=O)NC2(N1)C(=O)NC3=O,CC(C)O,mol_2120_solute_opt,mol_2120_solvent_opt,50,46,273.15,-2.820214655190336,"3,7,9,11-Tetraoxo-2,4,6,8,10-pentaaza[3.3.3] Propellane (TOPAP)",isopropanol
2121.0,O=C(O)/C=C/c1ccc(O)cc1,CC(C)O,mol_2121_solute_opt,mol_2121_solvent_opt,50,41,293.15,-0.4023472753072031,p-coumaric acid,isopropanol
2122.0,COC(=O)[C@H](N)c1ccc(O)cc1,CC(C)O,mol_2122_solute_opt,mol_2122_solvent_opt,50,36,283.15,-2.6558070392028936,Methyl D-(−)-4-hydroxy-phenylglycinate,isopropanol
2123.0,COC(=O)c1c(C)cc(O)c(C)c1O,CC(C)O,mol_2123_solute_opt,mol_2123_solvent_opt,50,35,283.15,0.063974476622639,Veramoss,isopropanol
2124.0,CCOC(=O)N1CCC(=C2c3ccc(Cl)cc3CCc3cccnc32)CC1,CC(C)O,mol_2124_solute_opt,mol_2124_solvent_opt,50,33,283.17,-1.038342465455344,Loratadine,isopropanol
2125.0,O=[N+]([O-])N1C2C3N([N+](=O)[O-])C1C1N([N+](=O)[O-])C(C(N1[N+](=O)[O-])N3[N+](=O)[O-])N2[N+](=O)[O-],CC(C)O,mol_2125_solute_opt,mol_2125_solvent_opt,50,29,278.15,-2.820666827037112,ε-CL-20,isopropanol
2126.0,O=C(O)Cc1cccc2ccccc12,CC(C)O,mol_2126_solute_opt,mol_2126_solvent_opt,50,40,278.25,-1.850757672549069,1-naphthaleneacetic acid,isopropanol
2127.0,CCCCC1C(=O)N(c2ccccc2)N(c2ccccc2)C1=O,CC(C)O,mol_2127_solute_opt,mol_2127_solvent_opt,50,36,283.15,-1.4815739768387792,Phenylbutazone,isopropanol
2128.0,CC(=O)Oc1ccc(C2CC(=O)c3c(OC(C)=O)cc(OC(C)=O)cc3O2)cc1,CC(C)O,mol_2128_solute_opt,mol_2128_solvent_opt,50,29,278.2,-2.415477031319374,"4′,5,7-triacetoxyflavanone",isopropanol
2129.0,O=C(O)c1c(O)cccc1O,CC(C)O,mol_2129_solute_opt,mol_2129_solvent_opt,50,38,278.15,0.5860553838953476,"2,6-dihydroxybenzoic acid",isopropanol
2130.0,CC(C)(C)c1ccc(C(=O)O)cc1,CC(C)O,mol_2130_solute_opt,mol_2130_solvent_opt,50,35,293.15,0.1577427488265381,Para-tert-butylbenzoic acid,isopropanol
2131.0,CCOc1cc(C=O)ccc1O,CC(C)O,mol_2131_solute_opt,mol_2131_solvent_opt,50,39,273.15,-0.3329278908479395,Ethyl vanillin,isopropanol
2132.0,On1nnc2ccccc21,CC(C)O,mol_2132_solute_opt,mol_2132_solvent_opt,50,40,278.15,-0.4718375392672389,1-hydroxybenzotriazole,isopropanol
2133.0,COc1cc(C(=O)O)cc(OC)c1O,CC(C)O,mol_2133_solute_opt,mol_2133_solvent_opt,50,39,283.15,-1.2739666711634232,Syringic acid,isopropanol
2134.0,CS(=O)(=O)c1ccc([C@@H](O)[C@@H](CO)NC(=O)C(Cl)Cl)cc1,CC(C)O,mol_2134_solute_opt,mol_2134_solvent_opt,50,30,278.15,-3.3373855481730472,Thiamphenicol,isopropanol
2135.0,CC1(C)COP(=O)(C(Nc2ccccc2)c2ccccc2)OC1,CC(C)O,mol_2135_solute_opt,mol_2135_solvent_opt,50,33,278.15,-2.274242929941314,"5,5-dimethyl-2-(phenyl(phenylamino)methyl)-1,3,2-dioxaphosphinane 2-oxide",isopropanol
2136.0,N#Cc1cccc([N+](=O)[O-])c1,CC(C)O,mol_2136_solute_opt,mol_2136_solvent_opt,50,38,278.15,-1.6463136371399425,3-nitrobenzonitrile,isopropanol
2137.0,OC/C=C/c1ccccc1,CC(C)O,mol_2137_solute_opt,mol_2137_solvent_opt,50,40,253.15,0.5194673171845268,Trans-cinnamyl alcohol,isopropanol
2138.0,CO/C=C(/C(=O)OC)c1ccccc1Oc1cc(Oc2ccccc2C#N)ncn1,CC(C)O,mol_2138_solute_opt,mol_2138_solvent_opt,50,31,288.15,-2.350901616676235,Azoxystrobin,isopropanol
2139.0,Cc1ccccc1S(N)(=O)=O,CC(C)O,mol_2139_solute_opt,mol_2139_solvent_opt,50,41,283.15,-0.5730582523608562,o-Toluenesulfonamide,isopropanol
2140.0,O=C(c1ccccc1)C(O)c1ccccc1,CC(C)O,mol_2140_solute_opt,mol_2140_solvent_opt,50,35,273.15,-2.233438981821237,Benzoin,isopropanol
2141.0,CC1(C)O[C@H]2CC(=O)OC[C@]23[C@H]2CC[C@@]4(C)[C@H](c5ccoc5)OC(=O)[C@H]5O[C@]54[C@]2(C)C(=O)C[C@@H]13,CC(C)O,mol_2141_solute_opt,mol_2141_solvent_opt,50,25,283.2,-3.84585379489715,Limonin,isopropanol
2142.0,Cc1ccc(NC(=O)/C(=C/Cl)Sc2ccccc2)cc1,CC(C)O,mol_2142_solute_opt,mol_2142_solvent_opt,50,37,278.15,-1.5968971284505198,N-(4-methylphenyl-z-3-chloro-2-(phenylthio)propenamide,isopropanol
2143.0,Nc1ccc(S(=O)(=O)Nc2ccc(Cl)nn2)cc1,CC(C)O,mol_2143_solute_opt,mol_2143_solvent_opt,50,38,283.15,-1.3858649969981114,Sulfachloropyridazine,isopropanol
2144.0,COc1ccc(C(=O)N2CCCC2=O)cc1,CC(C)O,mol_2144_solute_opt,mol_2144_solvent_opt,50,31,273.15,-2.0188861584288267,Aniracetam,isopropanol
2145.0,CS(=O)(=O)c1ccc([C@@H](O)[C@@H](CF)NC(=O)C(Cl)Cl)cc1,CC(C)O,mol_2145_solute_opt,mol_2145_solvent_opt,50,24,283.15,-2.093475000646767,Florfenicol,isopropanol
2146.0,Cc1cc(C)nc(Nc2ccccc2)n1,CC(C)O,mol_2146_solute_opt,mol_2146_solvent_opt,50,30,283.15,-0.8606711623679197,Pyrimethanil,isopropanol
2147.0,O=C(O)Cc1ccccc1Cl,CC(C)O,mol_2147_solute_opt,mol_2147_solvent_opt,50,38,273.15,0.4676425794464833,2-chlorophenylacetic acid,isopropanol
2148.0,CC(=O)c1ccc([N+](=O)[O-])cc1,CC(C)O,mol_2148_solute_opt,mol_2148_solvent_opt,50,44,278.15,-1.3325076950965058,1-(4-nitrophenyl)ethanone,isopropanol
2149.0,CC(=O)c1cccc([N+](=O)[O-])c1,CC(C)O,mol_2149_solute_opt,mol_2149_solvent_opt,50,40,278.15,-1.2384065089943823,1-(3-nitrophenyl)ethanone,isopropanol
2150.0,O=C(c1ccccc1)c1ccccc1,CC(C)O,mol_2150_solute_opt,mol_2150_solvent_opt,50,36,278.15,-0.0607888525501719,Benzophenone,isopropanol
2151.0,COc1ccc(CC(=O)O)cc1,CC(C)O,mol_2151_solute_opt,mol_2151_solvent_opt,50,37,283.15,0.230615063681261,Para-methoxyphenylacetic acid,isopropanol
2152.0,Nc1nc(Cl)cc(Cl)n1,CC(C)O,mol_2152_solute_opt,mol_2152_solvent_opt,50,36,278.15,-2.1625094767417976,"2-amino-4,6-dichoropyrimidine",isopropanol
2153.0,CCOC(=O)[C@H](CCc1ccccc1)N[C@@H](C)C(=O)O,CC(C)O,mol_2153_solute_opt,mol_2153_solvent_opt,50,28,273.15,-1.9094976479361907,Enalapril hydride,isopropanol
2154.0,C[C@H](O)[C@@H](O)[C@@H](O)[C@H](O)C=O,CC(C)O,mol_2154_solute_opt,mol_2154_solvent_opt,50,40,288.15,-2.7350597245069137,L-fucose,isopropanol
2155.0,COCC(=O)Nc1c(I)c(C(=O)NCC(O)CO)c(I)c(C(=O)N(C)CC(O)CO)c1I,CC(C)O,mol_2155_solute_opt,mol_2155_solvent_opt,50,29,273.15,-3.1665179212793944,Iopromide,isopropanol
2156.0,O=c1nc[nH]c2[nH]ncc12,CC(C)O,mol_2156_solute_opt,mol_2156_solvent_opt,50,48,278.15,-3.315478813964872,Allopurinol,isopropanol
2157.0,COc1ccc2c(c1)c(CC(=O)O)c(C)n2C(=O)c1ccc(Cl)cc1,CC(C)O,mol_2157_solute_opt,mol_2157_solvent_opt,50,34,298.15,-1.2166773647233824,Indomethacin,isopropanol
2158.0,COc1ccc2cc([C@H](C)C(=O)O)ccc2c1,CC(C)O,mol_2158_solute_opt,mol_2158_solvent_opt,50,37,298.15,-0.78027707459263,(S)-Naproxen,isopropanol
2159.0,N#Cc1ccc([N+](=O)[O-])cc1,CC(C)O,mol_2159_solute_opt,mol_2159_solvent_opt,50,42,278.15,-1.6651847813513765,4-nitrobenzonitrile,isopropanol
2160.0,NC(=O)c1cccnc1,CC(C)O,mol_2160_solute_opt,mol_2160_solvent_opt,50,41,283.15,-0.5991619268294737,Nicotinamide,isopropanol
2161.0,CC(=O)O[C@H]1CC[C@@]2(C)C(=CC[C@@H]3[C@@H]2CC[C@]2(C)C(c4cccnc4)=CC[C@@H]32)C1,CC(C)O,mol_2161_solute_opt,mol_2161_solvent_opt,50,33,296.0,-0.755075594427082,Abiraterone acetate,isopropanol
2162.0,C[C@]12CC[C@H](O)CC1=CC[C@@H]1[C@@H]2CC[C@]2(C)C(c3cccnc3)=CC[C@@H]12,CC(C)O,mol_2162_solute_opt,mol_2162_solvent_opt,50,34,296.0,-1.6597177206605582,Abiraterone,isopropanol
2163.0,O=C(O)c1cc2ccccc2cc1O,CC(C)O,mol_2163_solute_opt,mol_2163_solvent_opt,50,41,293.15,-0.5037752538513222,3-hydroxy-2-naphthoic acid,isopropanol
2164.0,CCOC(=O)C1=C[C@]2(CC)CCCN3CCc4c(n1c1ccccc41)[C@@H]32,CC(C)O,mol_2164_solute_opt,mol_2164_solvent_opt,50,31,283.15,-2.34126505524535,Vinpocetine,isopropanol
2165.0,COc1cc(N)nc(OC)n1,CC(C)O,mol_2165_solute_opt,mol_2165_solvent_opt,50,40,283.15,-1.1337226208369642,"4-amino-2,6-dimethoxypyrimidine",isopropanol
2167.0,NNC(=O)c1ccncc1,CC(C)O,mol_2167_solute_opt,mol_2167_solvent_opt,50,41,283.15,-1.5553095062841142,Isoniazid,isopropanol
2168.0,N#CCc1ccc([N+](=O)[O-])cc1,CC(C)O,mol_2168_solute_opt,mol_2168_solvent_opt,50,45,278.15,-1.9212639281113355,p-nitrophenylacetonitrile,isopropanol
2169.0,CCCN(CCC)S(=O)(=O)c1ccc(C(=O)O)cc1,CC(C)O,mol_2169_solute_opt,mol_2169_solvent_opt,50,39,283.15,-1.0785782043228545,Probenecid,isopropanol
2170.0,Cc1nc(C)c(C)nc1C,CC(C)O,mol_2170_solute_opt,mol_2170_solvent_opt,50,38,273.15,-0.123079277559924,Tetramethylpyrazine,isopropanol
2171.0,COc1c(N2CCNC(C)C2)c(F)cc2c(=O)c(C(=O)O)cn(C3CC3)c12,CC(C)O,mol_2171_solute_opt,mol_2171_solvent_opt,50,30,273.15,-2.784151714014565,Gatifloxacin,isopropanol
2172.0,Nc1cc([N+](=O)[O-])ccc1Cl,CC(C)O,mol_2172_solute_opt,mol_2172_solvent_opt,50,47,273.15,-1.1999663930944124,2-chloro-5-nitroaniline,isopropanol
2173.0,CC(C)(C)NSc1nc2ccccc2s1,CC(C)O,mol_2173_solute_opt,mol_2173_solvent_opt,50,39,273.2,-0.9441103996937592,N-tert-butylbenzothiazole-2-sulfenamide,isopropanol
2174.0,Nc1nc(Cl)c2[nH]cnc2n1,CC(C)O,mol_2174_solute_opt,mol_2174_solvent_opt,50,38,278.15,-3.099168875811636,2-amino-6-chloropurine,isopropanol
2175.0,C[C@@H](O)[C@H]1C(=O)N2C(C(=O)[O-])=C(SC3Cn4cnc[n+]4C3)[C@H](C)[C@H]12,CC(C)O,mol_2175_solute_opt,mol_2175_solvent_opt,50,25,283.15,-4.055509383405226,Biapenem,isopropanol
2176.0,CC#C[C@]1(O)CC[C@H]2[C@@H]3CCC4=CC(=O)CCC4=C3[C@@H](c3ccc(N(C)C)cc3)C[C@@]21C,CC(C)O,mol_2176_solute_opt,mol_2176_solvent_opt,50,25,273.15,-3.02098975080834,Mifepristone,isopropanol
2177.0,Nc1nc2c(ncn2COC(CO)CO)c(=O)[nH]1,CC(C)O,mol_2177_solute_opt,mol_2177_solvent_opt,50,37,278.15,-3.082310282374097,Ganciclovir,isopropanol
2178.0,CC(C)N1C(=O)N(c2ccccc2)CSC1=NC(C)(C)C,CC(C)O,mol_2178_solute_opt,mol_2178_solvent_opt,50,27,273.15,-1.103362086233327,Buprofezin,isopropanol
2179.0,CC(=O)N(CC(O)CO)c1c(I)c(C(=O)NCC(O)CO)c(I)c(C(=O)NCC(O)CO)c1I,CC(C)O,mol_2179_solute_opt,mol_2179_solvent_opt,50,27,283.15,-2.2891844698688355,Iohexol,isopropanol
2180.0,COC(=O)Nc1nc2ccc(C(=O)c3ccc(F)cc3)cc2[nH]1,CC(C)O,mol_2180_solute_opt,mol_2180_solvent_opt,50,38,283.15,-4.060825367544704,Flubendazole,isopropanol
2181.0,NC(=O)c1ccc(N)cc1,CC(C)O,mol_2181_solute_opt,mol_2181_solvent_opt,50,42,283.15,-1.3569304552531456,4-aminobenzamide,isopropanol
2182.0,CCOC(=O)[C@@H](C)Oc1ccc(Oc2cnc3cc(Cl)ccc3n2)cc1,CC(C)O,mol_2182_solute_opt,mol_2182_solvent_opt,50,31,273.15,-1.7666838843181851,Quizalofop-p-ethyl,isopropanol
2183.0,O=C(O)[C@H]1O[C@@H](Oc2cc3oc(-c4ccccc4)cc(=O)c3c(O)c2O)[C@H](O)[C@@H](O)[C@@H]1O,CC(C)O,mol_2183_solute_opt,mol_2183_solvent_opt,50,25,278.15,-2.0464292029207614,Baicalin,isopropanol
2184.0,Cc1ccc2cc(C)ccc2c1,CC(C)O,mol_2184_solute_opt,mol_2184_solvent_opt,50,37,286.65,-1.145784125843273,"2,6-Dimethylnaphthalene ",isopropanol
2185.0,Nc1cccc2c(N)cccc12,CC(C)O,mol_2185_solute_opt,mol_2185_solvent_opt,50,41,273.15,-2.200792498384309,"1,5-Naphthalenediamine",isopropanol
2186.0,Nc1cccc2cccc(N)c12,CC(C)O,mol_2186_solute_opt,mol_2186_solvent_opt,50,38,273.15,-0.5202134182879974,"1,8-Naphthalenediamine",isopropanol
2187.0,Cc1cccc(C(=O)O)c1N,CC(C)O,mol_2187_solute_opt,mol_2187_solvent_opt,50,37,278.15,-0.9303514924680572,2-amino-3-methylbenzoic acid,isopropanol
2188.0,N#Cc1cccc([N+](=O)[O-])c1C#N,CC(C)O,mol_2188_solute_opt,mol_2188_solvent_opt,50,39,278.15,-2.127270104987988,3-nitrophthalonitrile,isopropanol
2189.0,O=Cc1ccc(C(=O)O)cc1,CC(C)O,mol_2189_solute_opt,mol_2189_solvent_opt,50,38,283.15,-1.1793708977627824,Terephthalaldehydic acid,isopropanol
2190.0,O=C(O)Cc1c[nH]c2ccccc12,CC(C)O,mol_2190_solute_opt,mol_2190_solvent_opt,50,36,278.15,-3.543221620049009,Indole-3-acetic acid,isopropanol
2191.0,NC(=O)c1ccc([N+](=O)[O-])cc1,CC(C)O,mol_2191_solute_opt,mol_2191_solvent_opt,50,42,283.15,-1.7734744530467157,p-Nitrobenzamide,isopropanol
2192.0,Sc1nc2ccccc2[nH]1,CC(C)O,mol_2192_solute_opt,mol_2192_solvent_opt,50,37,278.15,-1.3435186396076468,2-mercaptobenzimidazole,isopropanol
2193.0,NS(=O)(=O)c1cc2c(cc1Cl)NCNS2(=O)=O,CC(C)O,mol_2193_solute_opt,mol_2193_solvent_opt,50,46,283.33,-2.5344537040794664,Hydrochlorothiazide,isopropanol
2194.0,CC1=NNC(=O)N(/N=C/c2cccnc2)C1,CC(C)O,mol_2194_solute_opt,mol_2194_solvent_opt,50,31,278.15,-2.5806039084938344,Pymetrozine,isopropanol
2195.0,N#CCc1ccccc1[N+](=O)[O-],CC(C)O,mol_2195_solute_opt,mol_2195_solvent_opt,50,43,278.15,-1.2607401324723626,o-nitrophenylacetonitrile,isopropanol
2196.0,N[C@@H](Cc1ccc(O)cc1)C(=O)O,CC(C)O,mol_2196_solute_opt,mol_2196_solvent_opt,50,34,283.15,-4.135030436429129,L-tyrosine,isopropanol
2197.0,OCc1ccc(O[C@@H]2O[C@H](CO)[C@@H](O)[C@H](O)[C@H]2O)cc1,CC(C)O,mol_2197_solute_opt,mol_2197_solvent_opt,50,30,273.15,-1.8167100174956712,Gastrodin,isopropanol
2198.0,CC(=NC#N)N(C)Cc1ccc(Cl)nc1,CC(C)O,mol_2198_solute_opt,mol_2198_solvent_opt,50,42,278.15,-1.0472213547653255,Acetamiprid,isopropanol
2199.0,O=C1Cc2ccccc2N1,CC(C)O,mol_2199_solute_opt,mol_2199_solvent_opt,50,40,291.95,-1.051803253762114,2-oxindole,isopropanol
2200.0,N[C@H](CC(=O)O)C(=O)O,CC(C)O,mol_2200_solute_opt,mol_2200_solvent_opt,50,39,288.15,-2.5597662496929248,D-aspartic acid,isopropanol
2201.0,NC(=O)c1ccccc1N,CC(C)O,mol_2201_solute_opt,mol_2201_solvent_opt,50,35,273.15,-0.7057914454345634,2-aminobenzamide,isopropanol
2202.0,N#CC(c1ccc(Cl)cc1)c1c(Cl)cc(-n2ncc(=O)[nH]c2=O)cc1Cl,CC(C)O,mol_2202_solute_opt,mol_2202_solvent_opt,50,38,283.15,-1.9763431007542929,Diclazuril,isopropanol
2203.0,NS(=O)(=O)c1ccccc1,CC(C)O,mol_2203_solute_opt,mol_2203_solvent_opt,50,41,273.15,-0.9900985885821088,Benzenesulfonamide,isopropanol
2204.0,O=P(O)(O)c1ccccc1,CC(C)O,mol_2204_solute_opt,mol_2204_solvent_opt,50,35,278.15,0.623944179121703,Phenylphosphonic acid,isopropanol
2205.0,Fc1c(I)c(F)c(I)c(F)c1I,CC(C)O,mol_2205_solute_opt,mol_2205_solvent_opt,50,41,291.25,-1.550581654023813,"1,3,5-trifluoro-2,4,6-triiodobenzene",isopropanol
2206.0,Nc1nnn[nH]1,CC(C)O,mol_2206_solute_opt,mol_2206_solvent_opt,50,47,283.15,-1.9965700358840195,5-aminotetrazole,isopropanol
2207.0,CC(C)=CCC[C@@H](C)[C@H]1CC[C@@]2(C)C3=C(CC[C@]12C)[C@@]1(C)CC[C@H](O)C(C)(C)[C@@H]1CC3,CC(C)O,mol_2207_solute_opt,mol_2207_solvent_opt,50,28,278.07,-2.2041366849765485,Lanosterol,isopropanol
2208.0,Cc1cnc(C(=O)O)cn1,CC(C)O,mol_2208_solute_opt,mol_2208_solvent_opt,50,41,273.15,-3.982012256760077,5-methyl-2-pyrazinecarboxylic acid,isopropanol
2209.0,Nc1ccc(S(N)(=O)=O)cc1,CC(C)O,mol_2209_solute_opt,mol_2209_solvent_opt,50,41,278.15,-2.571037568021226,Sulfanilamide,isopropanol
2210.0,O=C(O[C@@H]1Cc2c(O)cc(O)cc2O[C@@H]1c1cc(O)c(O)c(O)c1)c1cc(O)c(O)c(O)c1,CC(C)O,mol_2210_solute_opt,mol_2210_solvent_opt,50,32,278.15,-4.098322817656512,(−)-epigallocatechin gallate,isopropanol
2211.0,c1cc(-n2c3ccccc3c3ccccc32)cc(-n2c3ccccc3c3ccccc32)c1,CC(C)O,mol_2211_solute_opt,mol_2211_solvent_opt,50,26,283.15,-3.220824908262559,"1,3-bis(9-carbazolyl)benzene",isopropanol
2212.0,N=C(N)NC(N)=S,CC(C)O,mol_2212_solute_opt,mol_2212_solvent_opt,50,41,283.15,-1.784895521286499,Amidinothiourea,isopropanol
2213.0,N[C@@H](CO)C(=O)O,CC(C)O,mol_2213_solute_opt,mol_2213_solvent_opt,50,39,278.15,-4.3993541162098015,L-serine,isopropanol
2214.0,CN1CCN(c2c(F)cc3c(=O)c(C(=O)O)cn4c3c2OCN4C)CC1,CC(C)O,mol_2214_solute_opt,mol_2214_solvent_opt,50,38,283.15,-3.168716420777939,Marbofloxacin,isopropanol
2215.0,Cc1c(C(=O)O)cc([N+](=O)[O-])cc1[N+](=O)[O-],CC(C)O,mol_2215_solute_opt,mol_2215_solvent_opt,50,42,288.15,-0.8681958433823213,"3,5-dinitro-2-methylbenzoic acid",isopropanol
2216.0,NCCCCCC(=O)O,CC(C)O,mol_2216_solute_opt,mol_2216_solvent_opt,50,35,283.15,-2.99233189863304,Aminocaproic acid,isopropanol
2217.0,O=C1C=CC(=O)N1c1ccccc1Br,CC(C)O,mol_2217_solute_opt,mol_2217_solvent_opt,50,36,278.15,-0.9376671804462494,"1-(2-bromo-phenyl)-pyrrole-2,5-dione",isopropanol
2218.0,N[C@@H](Cc1c[nH]c2ccccc12)C(=O)O,CC(C)O,mol_2218_solute_opt,mol_2218_solvent_opt,50,33,278.15,-2.835036213635955,L-tryptophan,isopropanol
2219.0,O=[N+]([O-])c1ncccc1O,CC(C)O,mol_2219_solute_opt,mol_2219_solvent_opt,50,42,278.15,-0.6723015391515116,3-hydroxy-2-nitropyridine,isopropanol
2220.0,Cc1nc(N)nc(N)n1,CC(C)O,mol_2220_solute_opt,mol_2220_solvent_opt,50,40,283.15,-2.4473750262661755,Acetoguanamine,isopropanol
2221.0,COC(=O)c1ccc(C(=O)OC)cc1,CC(C)O,mol_2221_solute_opt,mol_2221_solvent_opt,50,41,283.32,-1.929160493852505,Dimethyl terephthalate,isopropanol
2222.0,N[C@H](Cc1c[nH]cn1)C(=O)O,CC(C)O,mol_2222_solute_opt,mol_2222_solvent_opt,50,38,293.15,-2.316703209011369,D-histidine,isopropanol
2223.0,O=C(O)c1cccnc1Cl,CC(C)O,mol_2223_solute_opt,mol_2223_solvent_opt,50,41,273.15,-1.3064244393720037,2-chloronicotinic acid,isopropanol
2224.0,CN(C)[C@@H]1C(=O)C(C(N)=O)=C(O)[C@@]2(O)C(=O)C3=C(O)c4c(O)cccc4C[C@H]3C[C@@H]12,CC(C)O,mol_2224_solute_opt,mol_2224_solvent_opt,50,30,278.15,-3.272341212976848,Sancycline,isopropanol
2225.0,C[C@]12CCC3=C4CCC(=O)C=C4CC[C@H]3[C@@H]1CC[C@@]2(O)CC#N,CC(C)O,mol_2225_solute_opt,mol_2225_solvent_opt,50,31,273.15,-2.005733257483879,Dienogest,isopropanol
2226.0,C[C@H](N)C(=O)O,CC(C)O,mol_2226_solute_opt,mol_2226_solvent_opt,50,41,283.15,-2.9650065997767503,L-alanine,isopropanol
2227.0,Nc1c(Cl)cc([N+](=O)[O-])cc1Cl,CC(C)O,mol_2227_solute_opt,mol_2227_solvent_opt,50,46,283.15,-1.9099222961281013,"2,6-dichloro-4-nitroaniline",isopropanol