pair_id,SMILES_Solute,SMILES_Solvent,Solute_name,Solvent_name,Total_conformers,Filtered_conformers,Temperature_K,LogS,Compound_Name,Solvent
5350.0,Nc1ccc([N+](=O)[O-])cc1N,CC#N,mol_5350_solute_opt,mol_5350_solvent_opt,50,34,283.15,-1.3248937430222996,"4-nitro-1,2-phenylenediamine",acetonitrile
5351.0,C[C@@H]1CC[C@@]2(OC1)O[C@H]1C[C@H]3[C@@H]4CC=C5C[C@@H](O)CC[C@]5(C)[C@H]4CC[C@]3(C)[C@H]1[C@@H]2C,CC#N,mol_5351_solute_opt,mol_5351_solvent_opt,50,17,293.2,-1.1633180741831477,Diosgenin,acetonitrile
5352.0,Nc1cc(Cl)ccc1C(=O)O,CC#N,mol_5352_solute_opt,mol_5352_solvent_opt,50,34,278.15,-1.5694555176373517,2-amino-4-chlorobenzoic acid,acetonitrile
5353.0,Clc1ccc2c(c1)Nc1ccccc1S2,CC#N,mol_5353_solute_opt,mol_5353_solvent_opt,50,31,283.15,-1.1632129968153238,2-chlorophenothiazine,acetonitrile
5354.0,COc1cc(CO)ccc1O,CC#N,mol_5354_solute_opt,mol_5354_solvent_opt,50,27,293.15,-0.4769038287054084,Vanillyl alcohol,acetonitrile
5356.0,CC(C)c1ncc[nH]1,CC#N,mol_5356_solute_opt,mol_5356_solvent_opt,50,31,278.15,-0.2858383719534955,2-isopropylimidazole,acetonitrile
5357.0,Nc1ccc(N)c([N+](=O)[O-])c1,CC#N,mol_5357_solute_opt,mol_5357_solvent_opt,50,35,283.15,-0.4524416444949972,2-nitro-p-phenylenediamine,acetonitrile
5358.0,Cc1ccc(N)c([N+](=O)[O-])c1,CC#N,mol_5358_solute_opt,mol_5358_solvent_opt,50,33,278.15,-0.2612254409827229,4-methyl-2-nitroaniline,acetonitrile
5359.0,Cc1cc(C)[nH]n1,CC#N,mol_5359_solute_opt,mol_5359_solvent_opt,50,33,283.15,-0.261139110182603,"3,5-dimethylpyrazole",acetonitrile
5360.0,Cc1c(C(=O)O)cccc1[N+](=O)[O-],CC#N,mol_5360_solute_opt,mol_5360_solvent_opt,50,32,283.15,-0.7812688979700364,2-methyl-3-nitrobenzoic acid,acetonitrile
5361.0,NC(=O)c1cnccn1,CC#N,mol_5361_solute_opt,mol_5361_solvent_opt,50,35,278.15,-1.6116896350430114,Pyrazinamide,acetonitrile
5362.0,c1ccc(-c2nnn[nH]2)cc1,CC#N,mol_5362_solute_opt,mol_5362_solvent_opt,50,33,283.15,-1.4563766985974798,5-phenyltetrazole,acetonitrile
5363.0,S=c1[nH]c2ccccc2s1,CC#N,mol_5363_solute_opt,mol_5363_solvent_opt,50,35,273.15,-1.0763278998105574,2-mercaptobenzothiazole,acetonitrile
5364.0,NC(=O)c1ncn([C@@H]2O[C@H](CO)[C@@H](O)[C@H]2O)n1,CC#N,mol_5364_solute_opt,mol_5364_solvent_opt,50,28,278.15,-3.776275568698336,Ribavirin(II),acetonitrile
5365.0,Nc1cccc2c1CN(C1CCC(=O)NC1=O)C2=O,CC#N,mol_5365_solute_opt,mol_5365_solvent_opt,50,25,293.15,-1.988144214783918,Lenalidomide,acetonitrile
5367.0,COC(=O)Nc1nc2ccc(Sc3ccccc3)cc2[nH]1,CC#N,mol_5367_solute_opt,mol_5367_solvent_opt,50,25,273.15,-3.591617323492267,Fenbendazole,acetonitrile
5369.0,COc1ccccc1N1CCN(CC(O)COc2cccc3ccccc23)CC1,CC#N,mol_5369_solute_opt,mol_5369_solvent_opt,50,16,273.15,-1.6554849453991678,Naftopidil,acetonitrile
5371.0,Cc1ccc(NC(=O)c2ccc(CN3CCN(C)CC3)cc2)cc1Nc1nccc(-c2cccnc2)n1,CC#N,mol_5371_solute_opt,mol_5371_solvent_opt,50,9,273.15,-3.706593298322867,Imatinib,acetonitrile
5373.0,Cn1c(=O)c2c(ncn2CC2OCCO2)n(C)c1=O,CC#N,mol_5373_solute_opt,mol_5373_solvent_opt,50,29,273.15,-0.9322608614134238,Doxofylline,acetonitrile
5374.0,N#Cc1ccc2c(c1)OCO2,CC#N,mol_5374_solute_opt,mol_5374_solvent_opt,50,38,278.15,0.1471867394665701,Piperonylonitrile,acetonitrile
5375.0,CC(C)Oc1ccc2c(=O)c(-c3ccccc3)coc2c1,CC#N,mol_5375_solute_opt,mol_5375_solvent_opt,50,19,278.15,-1.3195824410500985,Ipriflavone,acetonitrile
5377.0,Clc1ccccc1C(c1ccccc1)(c1ccccc1)n1ccnc1,CC#N,mol_5377_solute_opt,mol_5377_solvent_opt,50,40,278.15,-1.4718292597066895,Clotrimazole,acetonitrile
5379.0,CC(=O)Nc1ccc(OC(=O)c2ccccc2OC(C)=O)cc1,CC#N,mol_5379_solute_opt,mol_5379_solvent_opt,50,22,278.15,-1.6000656586879898,Benorilate,acetonitrile
5380.0,CC#CCn1c(N2CCC[C@@H](N)C2)nc2c1c(=O)n(Cc1nc(C)c3ccccc3n1)c(=O)n2C,CC#N,mol_5380_solute_opt,mol_5380_solvent_opt,50,16,273.15,-2.0793250429003267,Linagliptin,acetonitrile
5381.0,CN1CCN(C2=Nc3cc(Cl)ccc3Nc3ccccc32)CC1,CC#N,mol_5381_solute_opt,mol_5381_solvent_opt,50,22,278.15,-1.3819819557297754,Clozapine,acetonitrile
5382.0,CC(=O)Nc1ccc(C(=O)O)cc1,CC#N,mol_5382_solute_opt,mol_5382_solvent_opt,50,27,283.15,-2.246884602235616,p-acetamidobenzoic acid,acetonitrile
5383.0,Clc1ncnc2[nH]ccc12,CC#N,mol_5383_solute_opt,mol_5383_solvent_opt,50,31,278.15,-1.3714744536856545,6-chloro-7-azapurine,acetonitrile
5384.0,Nc1nc2ccc(OC(F)(F)F)cc2s1,CC#N,mol_5384_solute_opt,mol_5384_solvent_opt,50,31,278.15,0.5574189018619319,Riluzole,acetonitrile
5385.0,O=C(O)COc1ccc(Cl)cc1Cl,CC#N,mol_5385_solute_opt,mol_5385_solvent_opt,50,32,278.15,-0.452658670220301,"2,4-dichlorophenoxyacetic acid",acetonitrile
5386.0,CC(C)C(=O)Nc1ccc([N+](=O)[O-])c(C(F)(F)F)c1,CC#N,mol_5386_solute_opt,mol_5386_solvent_opt,50,18,278.15,0.0877116693560546,Flutamide,acetonitrile
5387.0,c1ccc2[nH]c(-c3cscn3)nc2c1,CC#N,mol_5387_solute_opt,mol_5387_solvent_opt,50,30,283.15,-2.6889375351898828,Thiabendazole,acetonitrile
5388.0,O=C1CCc2cc(O)ccc2N1,CC#N,mol_5388_solute_opt,mol_5388_solvent_opt,50,34,278.15,-2.2453690587780284,"6-hydroxy-3,4-dihydro-2(1H)-quinolone",acetonitrile
5389.0,O=c1cc(CO)occ1O,CC#N,mol_5389_solute_opt,mol_5389_solvent_opt,50,29,278.15,-1.9182177071506592,Kojic acid,acetonitrile
5390.0,CNC(=O)c1cc(Oc2ccc(NC(=O)Nc3ccc(Cl)c(C(F)(F)F)c3)c(F)c2)ccn1,CC#N,mol_5390_solute_opt,mol_5390_solvent_opt,50,13,278.15,-2.564689901571422,Regorafenib,acetonitrile
5391.0,CC(C)OC(=O)[C@H](C)N[P@](=O)(Oc1ccccc1)Oc1c(F)c(F)c(F)c(F)c1F,CC#N,mol_5391_solute_opt,mol_5391_solvent_opt,50,19,278.15,-1.2371239434557264,SOV-I2,acetonitrile
5392.0,O=[N+]([O-])c1cc([N+](=O)[O-])c(Cl)c([N+](=O)[O-])c1Cl,CC#N,mol_5392_solute_opt,mol_5392_solvent_opt,50,31,298.15,-0.0362802549714673,"1,3-dichloro-2,4,6-trinitrobenzene",acetonitrile
5393.0,O=S(=O)(c1ccc(O)cc1)c1ccc(O)cc1,CC#N,mol_5393_solute_opt,mol_5393_solvent_opt,50,14,278.15,-0.4719449975687064,"4,4′-dihydroxydiphenylsulfone",acetonitrile
5394.0,COC1CCC2(CC1)NC(=O)C(c1cc(C)ccc1C)=C2O,CC#N,mol_5394_solute_opt,mol_5394_solvent_opt,50,16,288.15,-2.2155671355801307,"cis-3-(2,5-dimethylphenyl)-4-hydroxy-8-methoxy-1-azaspiro[4.5]dec-3-en-2-one (si-vi)",acetonitrile
5395.0,O=C(O)COc1ccc2ccccc2c1,CC#N,mol_5395_solute_opt,mol_5395_solvent_opt,50,41,278.15,-1.032117319364879,2-naphthoxyacetic acid,acetonitrile
5396.0,O=c1c2ccccc2sc2ccccc12,CC#N,mol_5396_solute_opt,mol_5396_solvent_opt,50,27,292.15,-2.0505588580072978,9H-thioxanthen-9-one,acetonitrile
5397.0,CC(=O)N1CCN(c2ccc(O)cc2)CC1,CC#N,mol_5397_solute_opt,mol_5397_solvent_opt,50,25,283.15,-1.712142740534411,1-[4-(4-hydroxyphenyl)piperazin-1-yl]ethenone,acetonitrile
5398.0,COc1ccc(Cl)cc1C(=O)NCCc1ccc(S(=O)(=O)NC(=O)NC2CCCCC2)cc1,CC#N,mol_5398_solute_opt,mol_5398_solvent_opt,50,19,288.15,-2.813505011306577,Glyburide,acetonitrile
5399.0,CC(=O)c1c(C)cc(C(C)(C)C)cc1C,CC#N,mol_5399_solute_opt,mol_5399_solvent_opt,50,18,273.15,0.6569876668061793,"1-(4-tert-butyl-2,6-dimethylphenyl)ethenone",acetonitrile
5400.0,CONC(=O)Nc1ccc(-c2sc3c(c2CN(C)C)c(=O)n(-c2ccc(OC)nn2)c(=O)n3Cc2c(F)cccc2F)cc1,CC#N,mol_5400_solute_opt,mol_5400_solvent_opt,50,15,298.15,-2.0388822775378554,Relugolix,acetonitrile
5401.0,O=C1CCC(=O)CC1,CC#N,mol_5401_solute_opt,mol_5401_solvent_opt,50,33,278.15,0.7906590658389808,"1,4-cyclohexanedione",acetonitrile
5402.0,CC(C)[C@@H](C)[C@@H](O)[C@H](O)[C@@H](C)[C@H]1CC[C@H]2[C@@H]3COC(=O)[C@H]4C[C@H](O)[C@H](O)C[C@]4(C)[C@H]3CC[C@]12C,CC#N,mol_5402_solute_opt,mol_5402_solvent_opt,50,15,283.15,-2.503490477977236,"2,4-epibrassinolide",acetonitrile
5403.0,Nc1cncc(Cl)n1,CC#N,mol_5403_solute_opt,mol_5403_solvent_opt,50,37,278.15,-0.7135890222357667,2-amino-6-chloropyrazine,acetonitrile
5404.0,CCOc1cccc(C=O)c1O,CC#N,mol_5404_solute_opt,mol_5404_solvent_opt,50,35,278.15,0.3547779181212267,3-ethoxysalicylaldehyde,acetonitrile
5405.0,C1=Cc2ccccc2Nc2ccccc21,CC#N,mol_5405_solute_opt,mol_5405_solvent_opt,50,26,278.15,-1.3199371158548403,Iminostilbene,acetonitrile
5406.0,CN(C)NC(=O)CCC(=O)O,CC#N,mol_5406_solute_opt,mol_5406_solvent_opt,50,23,283.15,-2.4782763375351813,Daminozide,acetonitrile
5407.0,CC(C)(C)C(=O)C(Oc1ccc(Cl)cc1)n1ccnc1,CC#N,mol_5407_solute_opt,mol_5407_solvent_opt,50,20,288.15,0.1754767120044707,Climbazole,acetonitrile
5408.0,Clc1cccnc1Cl,CC#N,mol_5408_solute_opt,mol_5408_solvent_opt,50,40,278.15,0.1015579850207793,"2,3-dichloropyridine",acetonitrile
5409.0,N#CN=C(N)N,CC#N,mol_5409_solute_opt,mol_5409_solvent_opt,50,38,283.15,-1.3716889773872756,Dicyandiamide,acetonitrile
5410.0,CCCCN(CCCC)c1ccc2c(c1)Oc1cc(C)c(Nc3ccccc3)cc1C21OC(=O)c2ccccc21,CC#N,mol_5410_solute_opt,mol_5410_solvent_opt,50,10,283.15,-2.72501075407026,2-anilino-6-(dibutylamino)-3-methylfluoran,acetonitrile
5411.0,Nc1nc(N)c2nc(-c3ccccc3)c(N)nc2n1,CC#N,mol_5411_solute_opt,mol_5411_solvent_opt,50,27,283.15,-4.312477854313421,Triamterene,acetonitrile
5412.0,CC(=O)C1C(=O)C=C(C)OC1=O,CC#N,mol_5412_solute_opt,mol_5412_solvent_opt,50,31,288.35,-0.1090289568373117,Dehydroacetic acid,acetonitrile
5413.0,O=C(O)/C=C/c1ccc(Cl)cc1,CC#N,mol_5413_solute_opt,mol_5413_solvent_opt,50,36,283.15,-2.210904592958927,trans-4-chlorocinnamic acid,acetonitrile
5415.0,CC1COC(Cn2cncn2)(c2ccc(Oc3ccc(Cl)cc3)cc2Cl)O1,CC#N,mol_5415_solute_opt,mol_5415_solvent_opt,50,19,278.15,-1.0660069323240116,Difenoconazole,acetonitrile
5416.0,N#Cc1ccc(C(c2ccc(C#N)cc2)n2cncn2)cc1,CC#N,mol_5416_solute_opt,mol_5416_solvent_opt,50,23,283.15,-0.9064847083603416,Letrozole,acetonitrile
5417.0,CCC(C)n1ncn(-c2ccc(N3CCN(c4ccc(OCC5COC(Cn6cncn6)(c6ccc(Cl)cc6Cl)O5)cc4)CC3)cc2)c1=O,CC#N,mol_5417_solute_opt,mol_5417_solvent_opt,50,14,298.15,-2.822637566758228,Itraconazole,acetonitrile
5418.0,O=C1CCC(=O)O1,CC#N,mol_5418_solute_opt,mol_5418_solvent_opt,50,38,278.15,0.3994516852274792,Succinic anhydride,acetonitrile
5419.0,OC[C@@H](O)[C@@H](O)[C@H](O)[C@@H](O)CO,CC#N,mol_5419_solute_opt,mol_5419_solvent_opt,50,31,278.15,-2.673404904114345,D-sorbitol,acetonitrile
5420.0,O=P(NC1CCCCC1)(Oc1ccccc1)Oc1ccccc1,CC#N,mol_5420_solute_opt,mol_5420_solvent_opt,50,14,293.15,-0.6527204184004332,Cyclohexyl-phosphoramidic acid diphenyl ester,acetonitrile
5422.0,O=P(O)(O)c1ccccc1,CC#N,mol_5422_solute_opt,mol_5422_solvent_opt,50,29,288.15,-0.5774152694441842,Phenylphosphonic acid,acetonitrile
5423.0,O=[N+]([O-])c1cccc2c([N+](=O)[O-])cccc12,CC#N,mol_5423_solute_opt,mol_5423_solvent_opt,50,32,273.15,-2.33562096938862,"1,5-dinitro-naphthalen",acetonitrile
5424.0,O=C(O)c1cc(O)c(O)c(O)c1,CC#N,mol_5424_solute_opt,mol_5424_solvent_opt,50,32,293.15,-0.2701019427386771,Gallic acid,acetonitrile
5425.0,C=CC(=O)NCO,CC#N,mol_5425_solute_opt,mol_5425_solvent_opt,50,28,279.15,-0.3133592009986543,N-hydroxymethyl acrylamide,acetonitrile
5426.0,Cc1cnc(N)s1,CC#N,mol_5426_solute_opt,mol_5426_solvent_opt,50,38,278.15,-0.2447332354038675,2-amino-5-methylthiazole,acetonitrile
5427.0,CCOC(=O)CCC(=O)O[C@H]1[C@H](O[C@@H]2[C@@H](C)[C@H](O[C@H]3C[C@@](C)(OC)[C@@H](O)[C@H](C)O3)[C@@H](C)C(=O)O[C@H](CC)[C@@](C)(O)[C@H](O)[C@@H](C)C(=O)[C@H](C)C[C@@]2(C)O)O[C@H](C)C[C@@H]1N(C)C,CC#N,mol_5427_solute_opt,mol_5427_solvent_opt,50,8,288.15,-1.4366350761625923,Erythromycin ethylsuccinate,acetonitrile
5428.0,O=Cc1ccc(O)cc1,CC#N,mol_5428_solute_opt,mol_5428_solvent_opt,50,37,278.15,-0.1946988992474005,4-hydroxybenzaldehyde,acetonitrile
5429.0,C[C@]12C=CC(=O)C=C1CC[C@@H]1[C@@H]2[C@@H](O)C[C@@]2(C)[C@H]1CC[C@]2(O)C(=O)CO,CC#N,mol_5429_solute_opt,mol_5429_solvent_opt,50,17,293.2,-1.378578182544559,Prednisolone,acetonitrile
5430.0,C[C@]12CCC(=O)C=C1CC[C@@H]1[C@@H]2[C@@H](O)C[C@@]2(C)[C@H]1CC[C@]2(O)C(=O)CO,CC#N,mol_5430_solute_opt,mol_5430_solvent_opt,50,19,293.2,-1.3572465814836887,Hydrocortisone,acetonitrile
5431.0,Cc1cc(N)n(-c2ccccc2)n1,CC#N,mol_5431_solute_opt,mol_5431_solvent_opt,50,25,283.15,0.4378371654660163,5-amino-3-methyl-1-phenylpyrazole,acetonitrile
5432.0,Cc1c(OCC(F)(F)F)ccnc1CS(=O)c1nc2ccccc2[nH]1,CC#N,mol_5432_solute_opt,mol_5432_solvent_opt,50,23,278.15,-1.1989243339449849,Lansoprazole,acetonitrile
5434.0,CC(=O)Nc1cccc(N)c1,CC#N,mol_5434_solute_opt,mol_5434_solvent_opt,50,25,278.15,-0.2466245099391591,"N-acetyl-1,3-phenylenediamine",acetonitrile
5435.0,Cc1occc(=O)c1O,CC#N,mol_5435_solute_opt,mol_5435_solvent_opt,50,40,288.15,-0.8475289885337848,Maltol,acetonitrile
5436.0,OC[C@H]1O[C@@H](Oc2c(O)cc(O)cc2/C=C/c2ccc(O)cc2)[C@H](O)[C@@H](O)[C@@H]1O,CC#N,mol_5436_solute_opt,mol_5436_solvent_opt,50,20,278.15,-1.2612604249822357,"2,3,5,4′-tetrahydroxystilbene-2-o-β-d-glucoside",acetonitrile
5437.0,O=c1[nH]c2ccccc2n1CCCN1CCC(n2c(=O)[nH]c3cc(Cl)ccc32)CC1,CC#N,mol_5437_solute_opt,mol_5437_solvent_opt,50,25,278.15,-5.6320595075628495,Domperidone,acetonitrile
5438.0,Cc1cnc(C(=O)O)c[n+]1[O-],CC#N,mol_5438_solute_opt,mol_5438_solvent_opt,50,36,283.15,-1.9576807866274428,Acipimox,acetonitrile
5439.0,Cc1ccc2c(c1)C(=O)OC2=O,CC#N,mol_5439_solute_opt,mol_5439_solvent_opt,50,40,278.15,0.3372861513413275,4-methylphthalic anhydride,acetonitrile
5441.0,COc1ccc(-c2nn(-c3ccccc3)cc2/C=C/C(=O)c2nc3ccccc3[nH]2)cc1,CC#N,mol_5441_solute_opt,mol_5441_solvent_opt,50,13,298.15,-2.506274089836581,(E)‑1‑(1H‑benzo[d]imidazole‑2‑yl)‑3‑(3‑(4‑methxyphenyl)‑1‑phenyl‑1H‑pyrazol‑4‑yl) prop‑2‑en‑1-one,acetonitrile
5442.0,COc1ccc(-c2nn(-c3ccccc3)cc2/C=C/C(=O)c2nc3ccccc3[nH]2)cc1OC,CC#N,mol_5442_solute_opt,mol_5442_solvent_opt,50,14,298.15,-2.6695274967892764,"(E)‑1‑(1H‑benzo[d]imidazole‑2‑yl)‑3‑(3‑(3,4‑dimethoxyphenyl)‑1‑phenyl‑1H‑pyrazol‑4‑yl)prop‑2‑en‑1-one",acetonitrile
5443.0,COc1cccc(-c2nn(-c3ccccc3)cc2/C=C/C(=O)c2nc3ccccc3[nH]2)c1,CC#N,mol_5443_solute_opt,mol_5443_solvent_opt,50,14,298.15,-3.25913359605929,(E)‑1‑(1H‑benzo[d]imidazole‑2‑yl)‑3‑(3‑methxyphenyl‑1H‑pyrazol‑4‑yl)prop‑2‑en-1-one,acetonitrile
5444.0,O=C(/C=C/c1cn(-c2ccccc2)nc1-c1ccc(Cl)cc1)c1nc2ccccc2[nH]1,CC#N,mol_5444_solute_opt,mol_5444_solvent_opt,50,16,298.15,-2.657782627193153,(E)‑1‑(1H‑benzo[d]imidazole‑2‑yl)‑3‑(3‑(4‑chlorophenyl)‑phenyl‑1H‑pyrazol‑4‑yl) prop‑2‑en‑1-one,acetonitrile
5445.0,O=C(/C=C/c1cn(-c2ccccc2)nc1-c1ccc(F)cc1)c1nc2ccccc2[nH]1,CC#N,mol_5445_solute_opt,mol_5445_solvent_opt,50,15,298.15,-1.8464368787488723,(E)‑1‑(1H‑benzo[d]imidazole‑2‑yl)‑3‑(3‑(4‑fluorophenyl)‑1H‑pyrazol‑4‑yl)pop‑2‑en‑1-one,acetonitrile
5447.0,O=C(/C=C/c1cn(-c2ccccc2)nc1-c1ccccc1)c1nc2ccccc2[nH]1,CC#N,mol_5447_solute_opt,mol_5447_solvent_opt,50,14,298.15,-2.9663783160297266,"(E)‑1‑(1H‑benzo[d]imidazole‑2‑yl)‑3‑(1, 3‑diphenyl‑1H‑pyrazol‑4‑yl) prop‑2‑en‑1-one",acetonitrile
5449.0,NC(=O)c1ccccc1,CC#N,mol_5449_solute_opt,mol_5449_solvent_opt,50,33,283.15,-0.496726628858758,Benzamide,acetonitrile
5450.0,CCOC(=O)c1ccc(O)cc1,CC#N,mol_5450_solute_opt,mol_5450_solvent_opt,50,28,278.15,0.1677337513272686,Ethylparaben,acetonitrile
5451.0,CC1(C)S[C@@H]2[C@H](NC(=O)[C@H](NC(=O)N3CCNC3=O)c3ccccc3)C(=O)N2[C@H]1C(=O)O,CC#N,mol_5451_solute_opt,mol_5451_solvent_opt,50,19,278.15,-2.019583959652811,Azlocillin,acetonitrile
5452.0,O=C(NC(Cc1cc(=O)[nH]c2ccccc12)C(=O)O)c1ccc(Cl)cc1,CC#N,mol_5452_solute_opt,mol_5452_solvent_opt,50,23,288.15,-4.800446807383706,Rebamipide,acetonitrile
5453.0,NC(=O)Cc1ccccc1,CC#N,mol_5453_solute_opt,mol_5453_solvent_opt,50,30,273.75,-0.9889368669987426,2-phenylacetamide,acetonitrile
5454.0,CC(=O)c1c(C)c([N+](=O)[O-])c(C(C)(C)C)c([N+](=O)[O-])c1C,CC#N,mol_5454_solute_opt,mol_5454_solvent_opt,50,26,278.15,-0.5548681024302283,Musk ketone,acetonitrile
5455.0,Cc1ccnc(NS(=O)(=O)c2ccc(N)cc2)n1,CC#N,mol_5455_solute_opt,mol_5455_solvent_opt,50,22,278.15,-1.5933702323033525,Sulfamerazine,acetonitrile
5456.0,Cc1ccc(S(N)(=O)=O)cc1,CC#N,mol_5456_solute_opt,mol_5456_solvent_opt,50,23,273.15,-0.0793695912408807,p-Toluenesulfonamide,acetonitrile
5457.0,CC(=O)OC(c1ccccc1)C(Cl)(Cl)Cl,CC#N,mol_5457_solute_opt,mol_5457_solvent_opt,50,28,288.15,-0.1448008065827595,Alpha-(trichloromethyl) benzyl acetate,acetonitrile
5458.0,O=C1Cc2cc(F)ccc2N1,CC#N,mol_5458_solute_opt,mol_5458_solvent_opt,50,39,278.15,-0.4004105741999957,5-fluoro-2-oxindole,acetonitrile
5459.0,O=C1C2C3C=CC(C3)C2C(=O)N1O,CC#N,mol_5459_solute_opt,mol_5459_solvent_opt,50,38,278.15,-0.4861691627750591,"N-hydroxy-5-norbornene-2,3-dicarboximide",acetonitrile
5460.0,Cc1c[nH]c(=O)[nH]c1=O,CC#N,mol_5460_solute_opt,mol_5460_solvent_opt,50,43,283.15,-3.0228651373791475,Thymine,acetonitrile
5461.0,c1ccc(-c2cc3ccccc3[nH]2)cc1,CC#N,mol_5461_solute_opt,mol_5461_solvent_opt,50,25,289.05,-0.5533978678678017,2-phenyl-1H-indole,acetonitrile
5462.0,C[C@]12CC[C@@H]3c4ccc(O)cc4CC[C@H]3[C@@H]1CC[C@@H]2O,CC#N,mol_5462_solute_opt,mol_5462_solvent_opt,50,24,273.15,0.6095995227838845,Estradiol,acetonitrile
5463.0,C[C@@H](O[C@H]1OCCN(Cc2n[nH]c(=O)[nH]2)[C@H]1c1ccc(F)cc1)c1cc(C(F)(F)F)cc(C(F)(F)F)c1,CC#N,mol_5463_solute_opt,mol_5463_solvent_opt,50,20,285.55,-2.480482376018436,Aprepitant,acetonitrile
5464.0,OC[C@H]1O[C@@H](c2ccc(Cl)c(Cc3ccc(O[C@H]4CCOC4)cc3)c2)[C@H](O)[C@@H](O)[C@@H]1O,CC#N,mol_5464_solute_opt,mol_5464_solvent_opt,50,14,278.15,-4.919187824885125,Empagliflozin,acetonitrile
5465.0,CC(=O)Oc1ccc(C(c2ccc(OC(C)=O)cc2)c2ccccn2)cc1,CC#N,mol_5465_solute_opt,mol_5465_solvent_opt,50,15,288.15,-0.6627915493012854,Bisacodyl,acetonitrile
5466.0,CC(C)C(N)=O,CC#N,mol_5466_solute_opt,mol_5466_solvent_opt,50,32,273.15,-0.6165683001068105,Isobutyramide,acetonitrile
5467.0,O=C1OC(=O)C2C3C=CC(O3)C12,CC#N,mol_5467_solute_opt,mol_5467_solvent_opt,50,37,278.15,-0.2087414316986343,"Exo-3,6-epoxy-1,2,3,6-tetrahydrophthalic anhydride",acetonitrile
5468.0,Cc1ccc(S(=O)(=O)NC(=O)NN2CC3CCCC3C2)cc1,CC#N,mol_5468_solute_opt,mol_5468_solvent_opt,50,20,278.15,-1.475798142662937,Gliclazide,acetonitrile
5469.0,Cn1nc([N+](=O)[O-])c([N+](=O)[O-])c1[N+](=O)[O-],CC#N,mol_5469_solute_opt,mol_5469_solvent_opt,50,29,283.15,-1.1585606630318566,"1-methyl-3,4,5-trinitropyrazole",acetonitrile
5470.0,O=C(c1ccc(F)cc1)c1ccc(F)cc1,CC#N,mol_5470_solute_opt,mol_5470_solvent_opt,50,28,293.15,-0.2296176073514965,"4,4′-difluorobenzophenone",acetonitrile
5471.0,CC1=CC(=O)c2ccccc2C1=O,CC#N,mol_5471_solute_opt,mol_5471_solvent_opt,50,31,278.15,-0.498376736054336,Vitamin K3,acetonitrile
5472.0,O=[N+]([O-])c1cn[nH]c1[N+](=O)[O-],CC#N,mol_5472_solute_opt,mol_5472_solvent_opt,50,35,283.15,0.1919633433545482,"3,4-dinitro-1H-pyrazole",acetonitrile
5473.0,O=C1c2ccccc2C(=O)N1O,CC#N,mol_5473_solute_opt,mol_5473_solvent_opt,50,34,278.15,-1.3441944331909068,N-hydroxyphthalimide,acetonitrile
5474.0,CC(=O)Nc1ccc(O)cc1,CC#N,mol_5474_solute_opt,mol_5474_solvent_opt,50,28,293.2,-0.8832180360628826,Paracetamol,acetonitrile
5475.0,CC(=O)[C@H]1CC[C@H]2[C@@H]3CCC4=CC(=O)CC[C@]4(C)[C@H]3CC[C@]12C,CC#N,mol_5475_solute_opt,mol_5475_solvent_opt,50,16,278.15,-0.8530894264419318,Progesterone,acetonitrile
5476.0,Nc1ccc(S(=O)(=O)Nc2ncccn2)cc1,CC#N,mol_5476_solute_opt,mol_5476_solvent_opt,50,20,278.15,-2.211054401370901,Sulfadiazine,acetonitrile
5477.0,NS(=O)(=O)Cc1noc2ccccc12,CC#N,mol_5477_solute_opt,mol_5477_solvent_opt,50,33,278.15,-0.8739300250579956,Zonisamide,acetonitrile
5478.0,O=C(O)c1ccco1,CC#N,mol_5478_solute_opt,mol_5478_solvent_opt,50,32,283.15,-0.0306700325409594,2-furancarboxylic acid,acetonitrile
5479.0,COc1ccc(C(=O)O)cc1,CC#N,mol_5479_solute_opt,mol_5479_solvent_opt,50,30,273.15,-1.686253039490299,4-methoxybenzoic acid,acetonitrile
5480.0,N#CCNC(=O)c1cnccc1C(F)(F)F,CC#N,mol_5480_solute_opt,mol_5480_solvent_opt,50,33,283.15,-0.4674886244528271,Flonicamid,acetonitrile
5481.0,CC1Cc2ccccc2N1NC(=O)c1ccc(Cl)c(S(N)(=O)=O)c1,CC#N,mol_5481_solute_opt,mol_5481_solvent_opt,50,16,278.15,-1.4454976106669108,Indapamide,acetonitrile
5483.0,COc1cc(/C=C/C(=O)CC(=O)/C=C/c2ccc(O)c(OC)c2)ccc1O,CC#N,mol_5483_solute_opt,mol_5483_solvent_opt,50,15,278.15,-1.8593119354166188,Curcumin,acetonitrile
5484.0,O=[N+]([O-])c1cc[nH]n1,CC#N,mol_5484_solute_opt,mol_5484_solvent_opt,50,37,283.15,-0.537440126852211,3-nitro-1H-pyrazole,acetonitrile
5485.0,CC(C)[C@H](C)[C@@H](O)[C@H](O)[C@@H](C)[C@H]1CC[C@H]2[C@@H]3COC(=O)[C@H]4C[C@H](O)[C@H](O)C[C@]4(C)[C@H]3CC[C@]12C,CC#N,mol_5485_solute_opt,mol_5485_solvent_opt,50,14,278.15,-1.9547562686284743,Brassinolide,acetonitrile
5486.0,Cn1cc[nH]c1=S,CC#N,mol_5486_solute_opt,mol_5486_solvent_opt,50,33,278.15,-0.4997538585090266,Methimazole,acetonitrile
5487.0,CC(=O)Nc1ccc(CC(=O)O)cc1,CC#N,mol_5487_solute_opt,mol_5487_solvent_opt,50,27,278.15,-1.7420852060309409,Actarit,acetonitrile