pair_id,SMILES_Solute,SMILES_Solvent,Solute_name,Solvent_name,Total_conformers,Filtered_conformers,Temperature_K,LogS,Compound_Name,Solvent
5618.0,O=C(O)c1cccc(O)c1,CC#N,mol_5618_solute_opt,mol_5618_solvent_opt,50,36,278.15,-0.8978315812669736,m-Hydroxybenzoic acid,acetonitrile
5619.0,O=C1C(CCS(=O)c2ccccc2)C(=O)N(c2ccccc2)N1c1ccccc1,CC#N,mol_5619_solute_opt,mol_5619_solvent_opt,50,17,283.15,-0.5925641292228613,Sulfinpyrazone,acetonitrile
5620.0,O=C1CCCC(=O)C1,CC#N,mol_5620_solute_opt,mol_5620_solvent_opt,50,39,288.15,-0.5156772983636673,"1,3-cyclohexanedione",acetonitrile
5621.0,Nc1cccc(O)c1,CC#N,mol_5621_solute_opt,mol_5621_solvent_opt,50,35,288.15,0.1794703502352989,3-aminophenol,acetonitrile
5622.0,N[C@@H](Cc1ccccc1)C(=O)O,CC#N,mol_5622_solute_opt,mol_5622_solvent_opt,50,24,283.15,-3.8162489672880375,L-phenylalanine,acetonitrile
5623.0,CC(C)(C)c1ccc(-c2nnc(-c3ccc(-c4ccccc4)cc3)o2)cc1,CC#N,mol_5623_solute_opt,mol_5623_solvent_opt,50,17,283.15,-1.557921966476085,"2-(4-tert-butylphenyl)-5-(4-biphenyl)-1,3,4-oxadiazole",acetonitrile
5624.0,NC(=O)CS(=O)C(c1ccccc1)c1ccccc1,CC#N,mol_5624_solute_opt,mol_5624_solvent_opt,50,24,286.3,-1.8804274005832269,Modafinil,acetonitrile
5625.0,O=c1ccc2cc(O)c(O)cc2o1,CC#N,mol_5625_solute_opt,mol_5625_solvent_opt,50,37,273.15,-0.5651870533059905,Esculetin,acetonitrile
5626.0,Cc1c(Cl)cccc1Nc1ccccc1C(=O)O,CC#N,mol_5626_solute_opt,mol_5626_solvent_opt,50,21,283.15,-2.356417558789561,Tolfenamic acid,acetonitrile
5627.0,CC(C)(N)C(=O)O,CC#N,mol_5627_solute_opt,mol_5627_solvent_opt,50,28,283.15,-2.6239209565722765,α-Aminoisobutyric Acid,acetonitrile
5628.0,CC(=O)N[C@H](C(=O)O)C(C)C,CC#N,mol_5628_solute_opt,mol_5628_solvent_opt,50,24,283.15,-1.4035758332684054,N-acetyl-L-valine,acetonitrile
5629.0,O=C1CC[C@@H](C(=O)O)N1,CC#N,mol_5629_solute_opt,mol_5629_solvent_opt,50,34,283.15,-1.4484983574517394,L-pyroglutamic acid,acetonitrile
5630.0,COc1ccc(/C=C/C(=O)O)cc1OC,CC#N,mol_5630_solute_opt,mol_5630_solvent_opt,50,25,283.15,-1.4617091661945938,"3,4-dimethoxycinnamic acid",acetonitrile
5631.0,CCOc1ccc(OCC)cc1,CC#N,mol_5631_solute_opt,mol_5631_solvent_opt,50,28,278.15,-0.3918629145730971,"1,4-diethoxybenzene",acetonitrile
5632.0,COC(=O)c1cc(OC)c2c(c1-c1c(C(=O)OC)cc(OC)c3c1OCO3)OCO2,CC#N,mol_5632_solute_opt,mol_5632_solvent_opt,50,16,293.15,-0.9835833942537424,Bifendate,acetonitrile
5633.0,OCC1(O)OC[C@@H](O)[C@@H](O)[C@H]1O,CC#N,mol_5633_solute_opt,mol_5633_solvent_opt,50,37,283.15,-2.359672888725444,D-psicose,acetonitrile
5634.0,CC(=O)O[C@H]1NC(=O)[C@@H]1[C@@H](C)O[Si](C)(C)C(C)(C)C,CC#N,mol_5634_solute_opt,mol_5634_solvent_opt,50,18,293.15,-0.0050710510048606,4-acetoxyazetidin-2-one,acetonitrile
5635.0,Oc1ccccc1C=N[C@@H]1CCCC[C@H]1N=Cc1ccccc1O,CC#N,mol_5635_solute_opt,mol_5635_solvent_opt,50,20,273.15,-1.1073804999614598,"Bis(salicylidene)-trans-1,2-cyclo-hexanediamine",acetonitrile
5636.0,CC(C)[C@H](NC(=O)OCC1c2ccccc2-c2ccccc21)C(=O)O,CC#N,mol_5636_solute_opt,mol_5636_solvent_opt,50,24,283.15,-1.291787771838634,Fmoc-L-valine,acetonitrile
5637.0,O=[N+]([O-])c1ccc(Oc2ccc([N+](=O)[O-])cc2)cc1,CC#N,mol_5637_solute_opt,mol_5637_solvent_opt,50,27,283.15,-1.0627011677272304,"4,4′-dinitrodiphenyl ether",acetonitrile
5638.0,CCCCN(CCCC)c1ccc(C(=O)c2ccccc2C(=O)O)c(O)c1,CC#N,mol_5638_solute_opt,mol_5638_solvent_opt,50,18,283.15,-1.8678569243637004,2-[4-(dibutylamino)-2-hydroxybenzoyl] benzoic acid,acetonitrile
5639.0,c1ccc2[nH]cnc2c1,CC#N,mol_5639_solute_opt,mol_5639_solvent_opt,50,32,283.15,-1.001443373374962,Benzimidazole,acetonitrile
5640.0,CC[C@H](C)[C@H](N)C(=O)O,CC#N,mol_5640_solute_opt,mol_5640_solvent_opt,50,26,283.15,-2.52770444038526,L-isoleucine,acetonitrile
5641.0,Cc1cc(Cl)ccc1OCC(=O)O,CC#N,mol_5641_solute_opt,mol_5641_solvent_opt,50,31,278.15,-0.295398050743011,2-methyl-4-chlorophenoxyacetic acid,acetonitrile
5642.0,CCNc1nc(Cl)nc(NC(C)C)n1,CC#N,mol_5642_solute_opt,mol_5642_solvent_opt,50,25,283.15,-1.7125763867539012,Atrazine,acetonitrile
5643.0,Cc1nc2n(c(=O)c1CCN1CCC(c3noc4cc(F)ccc34)CC1)CCCC2O,CC#N,mol_5643_solute_opt,mol_5643_solvent_opt,50,22,288.15,-3.3270158981183844,Paliperidone,acetonitrile
5644.0,CC(C(=O)O)c1ccc(CC2CCCC2=O)cc1,CC#N,mol_5644_solute_opt,mol_5644_solvent_opt,50,24,283.15,-0.3349508378835994,Loxoprofen,acetonitrile
5645.0,O=C(O)c1ccc(Cl)cc1Cl,CC#N,mol_5645_solute_opt,mol_5645_solvent_opt,50,35,273.15,-1.2040882103557435,"2,4-dichlorobenzoic acid",acetonitrile
5646.0,Nc1ncccn1,CC#N,mol_5646_solute_opt,mol_5646_solvent_opt,50,42,272.65,-0.6690557168229208,2-aminopyrimidine,acetonitrile
5647.0,N#Cc1c(Cl)c(Cl)c(Cl)c(Cl)c1C#N,CC#N,mol_5647_solute_opt,mol_5647_solvent_opt,50,36,288.15,-1.5882414520603936,Chlorothalonil,acetonitrile
5648.0,O=P(NCc1ccccc1)(Oc1ccccc1)Oc1ccccc1,CC#N,mol_5648_solute_opt,mol_5648_solvent_opt,50,15,293.15,-0.5441242600166002,"Phosphoramidic acid, N-(phenylmethyl)-, diphenyl ester (PANDE)",acetonitrile
5649.0,O=[N+]([O-])N1CN2CN(C1)CN([N+](=O)[O-])C2,CC#N,mol_5649_solute_opt,mol_5649_solvent_opt,50,25,288.15,-5.528884273286705,"3,7-dinitro-1,3,5,7-tetraazabicyclo [3.3.1] nonane",acetonitrile
5650.0,C(=C/c1ccccc1)\CN1CCN(C(c2ccccc2)c2ccccc2)CC1,CC#N,mol_5650_solute_opt,mol_5650_solvent_opt,50,15,288.5,-1.7737327806189114,Cinnarizine,acetonitrile
5651.0,C=C1C[C@]23C[C@H]1CC[C@H]2[C@@]12CC[C@H](O)[C@@](C)(C(=O)O1)[C@H]2[C@@H]3C(=O)O,CC#N,mol_5651_solute_opt,mol_5651_solvent_opt,50,19,278.15,-1.1174468279032657,Gibberellin A4,acetonitrile
5652.0,O=C1OC(=O)c2c(Cl)cccc21,CC#N,mol_5652_solute_opt,mol_5652_solvent_opt,50,37,283.15,0.146189255679718,3-chlorophthalic anhydride,acetonitrile
5653.0,O=C1OC(=O)c2cc(Cl)ccc21,CC#N,mol_5653_solute_opt,mol_5653_solvent_opt,50,40,283.15,0.3404952377556056,4-chlorophthalic anhydride,acetonitrile
5654.0,COc1cc(Cc2cnc(N)nc2N)cc(OC)c1OC,CC#N,mol_5654_solute_opt,mol_5654_solvent_opt,50,23,293.15,-2.1752756247490304,Trimethoprim,acetonitrile
5655.0,CS(=O)(=O)c1ccc(C=O)cc1,CC#N,mol_5655_solute_opt,mol_5655_solvent_opt,50,24,283.15,-0.9342812796587288,4-(methylsulfonyl)benzaldehyde,acetonitrile
5656.0,CCOc1ncc(C)c2c1[C@H](c1ccc(C#N)cc1OC)C(C(N)=O)=C(C)N2,CC#N,mol_5656_solute_opt,mol_5656_solvent_opt,50,14,273.15,-1.800136174778792,Finerenone,acetonitrile
5657.0,Cc1c(O)c(=O)ccn1C,CC#N,mol_5657_solute_opt,mol_5657_solvent_opt,50,32,283.1,-2.44123025083686,Deferiprone,acetonitrile
5658.0,Nc1nnc(-c2cccc(Cl)c2Cl)c(N)n1,CC#N,mol_5658_solute_opt,mol_5658_solvent_opt,50,26,283.1,-1.9574982588068937,Lamotrigine,acetonitrile
5659.0,O=C1NC(=O)c2cc([N+](=O)[O-])ccc21,CC#N,mol_5659_solute_opt,mol_5659_solvent_opt,50,41,273.15,-1.1508781400330224,4-nitrophthalimide,acetonitrile
5660.0,O=C1NC23NC(=O)NC2(N1)C(=O)NC3=O,CC#N,mol_5660_solute_opt,mol_5660_solvent_opt,50,40,273.15,-3.753652169231533,"3,7,9,11-Tetraoxo-2,4,6,8,10-pentaaza[3.3.3] Propellane (TOPAP)",acetonitrile
5661.0,CCOC(=O)N1CCC(=C2c3ccc(Cl)cc3CCc3cccnc32)CC1,CC#N,mol_5661_solute_opt,mol_5661_solvent_opt,50,17,283.2,-1.235338329222603,Loratadine,acetonitrile
5662.0,O=C(O)Cc1cccc2ccccc12,CC#N,mol_5662_solute_opt,mol_5662_solvent_opt,50,30,278.25,-0.4477775376123687,1-naphthaleneacetic acid,acetonitrile
5663.0,CCCCC1C(=O)N(c2ccccc2)N(c2ccccc2)C1=O,CC#N,mol_5663_solute_opt,mol_5663_solvent_opt,50,16,283.12,-0.1717437692301565,Phenylbutazone,acetonitrile
5664.0,On1nnc2ccccc21,CC#N,mol_5664_solute_opt,mol_5664_solvent_opt,50,31,278.15,-1.34985754340582,1-hydroxybenzotriazole,acetonitrile
5665.0,CS(=O)(=O)c1ccc([C@@H](O)[C@@H](CO)NC(=O)C(Cl)Cl)cc1,CC#N,mol_5665_solute_opt,mol_5665_solvent_opt,50,22,278.15,-2.8100402453931093,Thiamphenicol,acetonitrile
5666.0,CC1(C)COP(=O)(C(Nc2ccccc2)c2ccccc2)OC1,CC#N,mol_5666_solute_opt,mol_5666_solvent_opt,50,17,278.0,-0.9625080623524436,"5,5-dimethyl-2-(phenyl(phenylamino)methyl)-1,3,2-dioxaphosphinane 2-oxide",acetonitrile
5667.0,N#Cc1cccc([N+](=O)[O-])c1,CC#N,mol_5667_solute_opt,mol_5667_solvent_opt,50,37,278.15,-0.014781054769728,3-nitrobenzonitrile,acetonitrile
5668.0,CC1(C)COP(=O)(Oc2cccc(OP3(=O)OCC(C)(C)CO3)c2)OC1,CC#N,mol_5668_solute_opt,mol_5668_solvent_opt,50,14,293.15,-0.7069144055181339,"Resorcinol bis(cyclic 2,2-dimethyl-1,3-propanediol phosphate)",acetonitrile
5669.0,Cc1ccccc1S(N)(=O)=O,CC#N,mol_5669_solute_opt,mol_5669_solvent_opt,50,29,283.15,-0.1713615681864535,o-Toluenesulfonamide,acetonitrile
5670.0,O=C(c1ccccc1)C(O)c1ccccc1,CC#N,mol_5670_solute_opt,mol_5670_solvent_opt,50,31,273.15,-1.400593221818916,Benzoin,acetonitrile
5671.0,CC1(C)O[C@H]2CC(=O)OC[C@]23[C@H]2CC[C@@]4(C)[C@H](c5ccoc5)OC(=O)[C@H]5O[C@]54[C@]2(C)C(=O)C[C@@H]13,CC#N,mol_5671_solute_opt,mol_5671_solvent_opt,50,15,283.2,-1.2773580274721843,Limonin,acetonitrile
5672.0,O=C(O)c1ccc(C(=O)O)o1,CC#N,mol_5672_solute_opt,mol_5672_solvent_opt,50,32,313.15,-2.946200587211912,"2,5-furandicarboxylic acid",acetonitrile
5673.0,Cc1ccc(NC(=O)/C(=C/Cl)Sc2ccccc2)cc1,CC#N,mol_5673_solute_opt,mol_5673_solvent_opt,50,24,278.15,-1.0755387942822898,N-(4-methylphenyl-z-3-chloro-2-(phenylthio)propenamide,acetonitrile
5674.0,Nc1ccc(S(=O)(=O)Nc2ccc(Cl)nn2)cc1,CC#N,mol_5674_solute_opt,mol_5674_solvent_opt,50,19,283.15,-0.4343132677898325,Sulfachloropyridazine,acetonitrile
5675.0,O=C(O)Cc1ccccc1Cl,CC#N,mol_5675_solute_opt,mol_5675_solvent_opt,50,32,273.15,0.0831449371877424,2-chlorophenylacetic acid,acetonitrile
5676.0,CC(=O)c1ccc([N+](=O)[O-])cc1,CC#N,mol_5676_solute_opt,mol_5676_solvent_opt,50,38,278.15,0.3477540331126877,1-(4-nitrophenyl)ethanone,acetonitrile
5677.0,CC(=O)c1cccc([N+](=O)[O-])c1,CC#N,mol_5677_solute_opt,mol_5677_solvent_opt,50,34,278.15,0.1772129930963168,1-(3-nitrophenyl)ethanone,acetonitrile
5678.0,O=C(c1ccccc1)c1ccccc1,CC#N,mol_5678_solute_opt,mol_5678_solvent_opt,50,26,278.15,0.9230041428774628,Benzophenone,acetonitrile
5679.0,COc1ccc(CC(=O)O)cc1,CC#N,mol_5679_solute_opt,mol_5679_solvent_opt,50,29,283.15,-0.0687686095633968,Para-methoxyphenylacetic acid,acetonitrile
5680.0,Nc1nc(Cl)cc(Cl)n1,CC#N,mol_5680_solute_opt,mol_5680_solvent_opt,50,38,278.15,-1.6048144791988883,"2-amino-4,6-dichoropyrimidine",acetonitrile
5681.0,CCOC(=O)[C@H](CCc1ccccc1)N[C@@H](C)C(=O)O,CC#N,mol_5681_solute_opt,mol_5681_solvent_opt,50,22,273.15,-2.629027329209595,Enalapril hydride,acetonitrile
5682.0,O=c1[nH]cc(F)c(=O)[nH]1,CC#N,mol_5682_solute_opt,mol_5682_solvent_opt,50,46,290.3,-2.0552492513019,5-fluorouracil,acetonitrile
5683.0,O=c1nc[nH]c2[nH]ncc12,CC#N,mol_5683_solute_opt,mol_5683_solvent_opt,50,41,278.15,-2.728792091107308,Allopurinol,acetonitrile
5684.0,COc1ccc2c(c1)c(CC(=O)O)c(C)n2C(=O)c1ccc(Cl)cc1,CC#N,mol_5684_solute_opt,mol_5684_solvent_opt,50,20,298.15,-1.3436021160919989,Indomethacin,acetonitrile
5685.0,COc1ccc2cc([C@H](C)C(=O)O)ccc2c1,CC#N,mol_5685_solute_opt,mol_5685_solvent_opt,50,21,298.15,-0.9437331618390558,(S)-Naproxen,acetonitrile
5686.0,O=C(O)Cc1ccccc1Nc1c(Cl)cccc1Cl,CC#N,mol_5686_solute_opt,mol_5686_solvent_opt,50,26,298.15,-1.325757134269126,Diclofenac,acetonitrile
5687.0,O=C(O)c1cccnc1Nc1cccc(C(F)(F)F)c1,CC#N,mol_5687_solute_opt,mol_5687_solvent_opt,50,21,298.15,-1.6051986287993052,Niflumic acid,acetonitrile
5688.0,c1cc2cccc3c4cccc5cccc(c(c1)c23)c54,CC#N,mol_5688_solute_opt,mol_5688_solvent_opt,50,19,298.15,-3.0527730446670107,Perylene,acetonitrile
5689.0,c1ccc(N(c2ccc(-c3ccc(N(c4ccccc4)c4cccc5ccccc45)cc3)cc2)c2cccc3ccccc23)cc1,CC#N,mol_5689_solute_opt,mol_5689_solvent_opt,50,13,298.15,-4.529913947344125,"N,N′-di-1-naphthyl-N,N′-diphenylbenzidine",acetonitrile
5690.0,c1ccc2c(c1)c1ccccc1n2-c1ccc(-c2ccc(-n3c4ccccc4c4ccccc43)cc2)cc1,CC#N,mol_5690_solute_opt,mol_5690_solvent_opt,50,12,298.15,-3.845664602735994,"4,4′-bis(9H-carbazol-9-yl)biphenyl (CBP)",acetonitrile
5691.0,c1ccc2cc3cc4ccccc4cc3cc2c1,CC#N,mol_5691_solute_opt,mol_5691_solvent_opt,50,21,298.15,-3.821577440461581,Tetracene,acetonitrile
5692.0,c1ccc2cc3ccccc3cc2c1,CC#N,mol_5692_solute_opt,mol_5692_solvent_opt,50,30,298.15,-1.839045425621392,Anthracene,acetonitrile
5693.0,CC(=O)O[C@H]1CC[C@@]2(C)C(=CC[C@@H]3[C@@H]2CC[C@]2(C)C(c4cccnc4)=CC[C@@H]32)C1,CC#N,mol_5693_solute_opt,mol_5693_solvent_opt,50,14,296.0,-1.3990574320306155,Abiraterone acetate,acetonitrile
5694.0,C[C@]12CC[C@H](O)CC1=CC[C@@H]1[C@@H]2CC[C@]2(C)C(c3cccnc3)=CC[C@@H]12,CC#N,mol_5694_solute_opt,mol_5694_solvent_opt,50,18,296.0,-3.0740900436557355,Abiraterone,acetonitrile
5695.0,CC[C@@H](C(N)=O)N1CCCC1=O,CC#N,mol_5695_solute_opt,mol_5695_solvent_opt,50,24,283.15,-0.7514462589249962,Levetiracetam,acetonitrile
5696.0,NNC(=O)c1ccncc1,CC#N,mol_5696_solute_opt,mol_5696_solvent_opt,50,40,283.15,-1.8532265052548496,Isoniazid,acetonitrile
5697.0,N#CCc1ccc([N+](=O)[O-])cc1,CC#N,mol_5697_solute_opt,mol_5697_solvent_opt,50,42,278.15,-0.1370292444358208,p-nitrophenylacetonitrile,acetonitrile
5698.0,Cc1nc(C)c(C)nc1C,CC#N,mol_5698_solute_opt,mol_5698_solvent_opt,50,34,273.15,-0.2496851812448556,Tetramethylpyrazine,acetonitrile
5699.0,COc1c(N2CCNC(C)C2)c(F)cc2c(=O)c(C(=O)O)cn(C3CC3)c12,CC#N,mol_5699_solute_opt,mol_5699_solvent_opt,50,11,273.15,-1.5927217832624707,Gatifloxacin,acetonitrile
5700.0,Nc1cc([N+](=O)[O-])ccc1Cl,CC#N,mol_5700_solute_opt,mol_5700_solvent_opt,50,34,273.15,-0.3517956458159622,2-chloro-5-nitroaniline,acetonitrile
5701.0,O=C(O)c1ccc(-n2nc(-c3ccccc3O)nc2-c2ccccc2O)cc1,CC#N,mol_5701_solute_opt,mol_5701_solvent_opt,50,14,298.2,-1.6985046465682008,Deferasirox,acetonitrile
5702.0,C[C@@H](O)[C@H]1C(=O)N2C(C(=O)[O-])=C(SC3Cn4cnc[n+]4C3)[C@H](C)[C@H]12,CC#N,mol_5702_solute_opt,mol_5702_solvent_opt,50,18,283.15,-3.154555735151105,Biapenem,acetonitrile
5703.0,Nc1nc2c(ncn2COC(CO)CO)c(=O)[nH]1,CC#N,mol_5703_solute_opt,mol_5703_solvent_opt,50,27,278.15,-3.611538005931704,Ganciclovir,acetonitrile
5704.0,CC(C)N1C(=O)N(c2ccccc2)CSC1=NC(C)(C)C,CC#N,mol_5704_solute_opt,mol_5704_solvent_opt,50,12,273.15,-0.9780319835605172,Buprofezin,acetonitrile
5705.0,CC(=O)N(CC(O)CO)c1c(I)c(C(=O)NCC(O)CO)c(I)c(C(=O)NCC(O)CO)c1I,CC#N,mol_5705_solute_opt,mol_5705_solvent_opt,50,17,283.15,-2.7861644564531582,Iohexol,acetonitrile
5706.0,NC(=O)c1ccc(N)cc1,CC#N,mol_5706_solute_opt,mol_5706_solvent_opt,50,30,283.15,-1.4268073318409875,4-aminobenzamide,acetonitrile
5707.0,CCOC(=O)[C@@H](C)Oc1ccc(Oc2cnc3cc(Cl)ccc3n2)cc1,CC#N,mol_5707_solute_opt,mol_5707_solvent_opt,50,19,273.15,-0.5674425864212788,Quizalofop-p-ethyl,acetonitrile
5708.0,N#CCC(N)=O,CC#N,mol_5708_solute_opt,mol_5708_solvent_opt,50,38,273.15,-0.5147848462106553,2-cyanoacetamide,acetonitrile
5709.0,Nc1cccc2c(N)cccc12,CC#N,mol_5709_solute_opt,mol_5709_solvent_opt,50,31,273.15,-1.438748308989368,"1,5-Naphthalenediamine",acetonitrile
5710.0,Nc1cccc2cccc(N)c12,CC#N,mol_5710_solute_opt,mol_5710_solvent_opt,50,24,273.15,0.0296196341886857,"1,8-Naphthalenediamine",acetonitrile
5711.0,Cc1cccc(C(=O)O)c1N,CC#N,mol_5711_solute_opt,mol_5711_solvent_opt,50,29,278.15,-0.3454684526313413,2-amino-3-methylbenzoic acid,acetonitrile
5712.0,Cc1[nH]nc2cc([N+](=O)[O-])ccc12,CC#N,mol_5712_solute_opt,mol_5712_solvent_opt,50,36,278.15,-0.7383379571722255,3-methyl-6-nitroindazole,acetonitrile
5713.0,O=C(O)Cc1c[nH]c2ccccc12,CC#N,mol_5713_solute_opt,mol_5713_solvent_opt,50,31,278.15,-3.8975618582586846,Indole-3-acetic acid,acetonitrile
5714.0,NC(=O)c1ccc([N+](=O)[O-])cc1,CC#N,mol_5714_solute_opt,mol_5714_solvent_opt,50,37,283.15,-1.9156470231713385,p-Nitrobenzamide,acetonitrile
5715.0,Sc1nc2ccccc2[nH]1,CC#N,mol_5715_solute_opt,mol_5715_solvent_opt,50,38,278.15,-1.7018353645264184,2-mercaptobenzimidazole,acetonitrile
5716.0,NS(=O)(=O)c1cc2c(cc1Cl)NCNS2(=O)=O,CC#N,mol_5716_solute_opt,mol_5716_solvent_opt,50,25,283.15,-1.2388058318973805,Hydrochlorothiazide,acetonitrile
5717.0,N#CCc1ccccc1[N+](=O)[O-],CC#N,mol_5717_solute_opt,mol_5717_solvent_opt,50,30,278.15,0.3011797981955026,o-nitrophenylacetonitrile,acetonitrile
5718.0,N[C@@H](Cc1ccc(O)cc1)C(=O)O,CC#N,mol_5718_solute_opt,mol_5718_solvent_opt,50,28,283.15,-4.2393705553333865,L-tyrosine,acetonitrile
5719.0,N[C@H](Cc1c[nH]c2ccccc12)C(=O)O,CC#N,mol_5719_solute_opt,mol_5719_solvent_opt,50,26,283.15,-2.954186672178128,D-tryptophan,acetonitrile
5720.0,OCc1ccc(O[C@@H]2O[C@H](CO)[C@@H](O)[C@H](O)[C@H]2O)cc1,CC#N,mol_5720_solute_opt,mol_5720_solvent_opt,50,20,273.15,-1.8880679228078807,Gastrodin,acetonitrile
5721.0,O=C1Cc2ccccc2N1,CC#N,mol_5721_solute_opt,mol_5721_solvent_opt,50,41,287.15,0.0123009356663272,2-oxindole,acetonitrile
5722.0,NC(=O)c1ccccc1N,CC#N,mol_5722_solute_opt,mol_5722_solvent_opt,50,30,273.15,-0.7026572866905865,2-aminobenzamide,acetonitrile
5723.0,N#CC(c1ccc(Cl)cc1)c1c(Cl)cc(-n2ncc(=O)[nH]c2=O)cc1Cl,CC#N,mol_5723_solute_opt,mol_5723_solvent_opt,50,25,283.15,-0.7938277501147014,Diclazuril,acetonitrile
5724.0,NS(=O)(=O)c1ccccc1,CC#N,mol_5724_solute_opt,mol_5724_solvent_opt,50,29,273.15,-0.1502906199167261,Benzenesulfonamide,acetonitrile
5725.0,Fc1c(I)c(F)c(I)c(F)c1I,CC#N,mol_5725_solute_opt,mol_5725_solvent_opt,50,38,290.35,-1.134625914257506,"1,3,5-trifluoro-2,4,6-triiodobenzene",acetonitrile
5726.0,Nc1nnn[nH]1,CC#N,mol_5726_solute_opt,mol_5726_solvent_opt,50,42,283.15,-2.428238353586099,5-aminotetrazole,acetonitrile
5727.0,CC(C)=CCC[C@@H](C)[C@H]1CC[C@@]2(C)C3=C(CC[C@]12C)[C@@]1(C)CC[C@H](O)C(C)(C)[C@@H]1CC3,CC#N,mol_5727_solute_opt,mol_5727_solvent_opt,50,18,277.09,-3.233110955641486,Lanosterol,acetonitrile
5728.0,Cc1cnc(C(=O)O)cn1,CC#N,mol_5728_solute_opt,mol_5728_solvent_opt,50,33,273.15,-4.3134458294609175,5-methyl-2-pyrazinecarboxylic acid,acetonitrile
5729.0,c1cc(-n2c3ccccc3c3ccccc32)cc(-n2c3ccccc3c3ccccc32)c1,CC#N,mol_5729_solute_opt,mol_5729_solvent_opt,50,13,283.15,-2.3281676695366187,"1,3-bis(9-carbazolyl)benzene",acetonitrile
5730.0,N=C(N)NC(N)=S,CC#N,mol_5730_solute_opt,mol_5730_solvent_opt,50,30,283.15,-1.1496404347862723,Amidinothiourea,acetonitrile
5731.0,N[C@@H](CO)C(=O)O,CC#N,mol_5731_solute_opt,mol_5731_solvent_opt,50,39,278.15,-2.715200550853951,L-serine,acetonitrile
5732.0,CN1CCN(c2c(F)cc3c(=O)c(C(=O)O)cn4c3c2OCN4C)CC1,CC#N,mol_5732_solute_opt,mol_5732_solvent_opt,50,13,283.15,-2.625690196485022,Marbofloxacin,acetonitrile
5733.0,Cc1c(C(=O)O)cc([N+](=O)[O-])cc1[N+](=O)[O-],CC#N,mol_5733_solute_opt,mol_5733_solvent_opt,50,31,288.15,-0.8626098861480337,"3,5-dinitro-2-methylbenzoic acid",acetonitrile
5734.0,O=C1C=CC(=O)N1c1ccccc1Br,CC#N,mol_5734_solute_opt,mol_5734_solvent_opt,50,29,278.15,-0.2341602548352443,"1-(2-bromo-phenyl)-pyrrole-2,5-dione",acetonitrile
5735.0,N[C@@H](Cc1c[nH]c2ccccc12)C(=O)O,CC#N,mol_5735_solute_opt,mol_5735_solvent_opt,50,28,278.15,-3.710874399767076,L-tryptophan,acetonitrile
5736.0,O=[N+]([O-])c1ncccc1O,CC#N,mol_5736_solute_opt,mol_5736_solvent_opt,50,35,278.15,0.3960065848599621,3-hydroxy-2-nitropyridine,acetonitrile
5737.0,Cc1nc(N)nc(N)n1,CC#N,mol_5737_solute_opt,mol_5737_solvent_opt,50,32,283.15,-2.7350643453554246,Acetoguanamine,acetonitrile
5738.0,COC(=O)c1ccc(C(=O)OC)cc1,CC#N,mol_5738_solute_opt,mol_5738_solvent_opt,50,36,283.18,-1.0553558806381016,Dimethyl terephthalate,acetonitrile
5739.0,O=C(O)c1cccnc1Cl,CC#N,mol_5739_solute_opt,mol_5739_solvent_opt,50,37,273.15,-1.6858391877808068,2-chloronicotinic acid,acetonitrile
5740.0,CN(C)[C@@H]1C(=O)C(C(N)=O)=C(O)[C@@]2(O)C(=O)C3=C(O)c4c(O)cccc4C[C@H]3C[C@@H]12,CC#N,mol_5740_solute_opt,mol_5740_solvent_opt,50,16,278.15,-2.637108925441905,Sancycline,acetonitrile
5741.0,C[C@]12CCC3=C4CCC(=O)C=C4CC[C@H]3[C@@H]1CC[C@@]2(O)CC#N,CC#N,mol_5741_solute_opt,mol_5741_solvent_opt,50,16,273.15,-1.6104453666527756,Dienogest,acetonitrile
5742.0,C[C@H](N)C(=O)O,CC#N,mol_5742_solute_opt,mol_5742_solvent_opt,50,32,283.15,-2.833032889602716,L-alanine,acetonitrile
5743.0,Nc1c(Cl)cc([N+](=O)[O-])cc1Cl,CC#N,mol_5743_solute_opt,mol_5743_solvent_opt,50,37,278.15,-1.5286607740077751,"2,6-dichloro-4-nitroaniline",acetonitrile
5744.0,O=C(O)[C@@H]1CCCN1,CC#N,mol_5744_solute_opt,mol_5744_solvent_opt,50,39,283.15,-3.298894849744297,L-proline,acetonitrile
5745.0,Oc1ccc(OCc2ccccc2)cc1,CC#N,mol_5745_solute_opt,mol_5745_solvent_opt,50,28,283.15,-0.1416540226539818,Monobenzone,acetonitrile
5746.0,COC(=O)C(C)(C)N=NC(C)(C)C(=O)OC,CC#N,mol_5746_solute_opt,mol_5746_solvent_opt,50,25,251.75,0.0653653102099431,"2,2′-azobis(2-methylpropionate)",acetonitrile