pair_id,SMILES_Solute,SMILES_Solvent,Solute_name,Solvent_name,Total_conformers,Filtered_conformers,Temperature_K,LogS,Compound_Name,Solvent
4675.0,C=C(C)[C@@H]1CC[C@]2(C(=O)O)CC[C@]3(C)[C@H](CC[C@@H]4[C@@]5(C)CC[C@H](O)C(C)(C)[C@@H]5CC[C@]43C)[C@@H]12,CC(C)=O,mol_4675_solute_opt,mol_4675_solvent_opt,50,31,278.2,-2.256720841983144,Betulinic acid,acetone
4676.0,Nc1ccc(Cl)nn1,CC(C)=O,mol_4676_solute_opt,mol_4676_solvent_opt,50,46,298.15,-1.3393227540216073,6-chloropyridazin-3-amine,acetone
4677.0,COc1cccc(Nc2ccccc2)c1,CC(C)=O,mol_4677_solute_opt,mol_4677_solvent_opt,50,33,287.25,0.6310121287692818,3-methoxy-N-phenylaniline,acetone
4678.0,CSc1cccc(Nc2ccccc2)c1,CC(C)=O,mol_4678_solute_opt,mol_4678_solvent_opt,50,35,287.45,0.6702452236282025,3-(methylthio)-N-phenylaniline,acetone
4679.0,C=C1CC[C@H](O)C/C1=C/C=C1\CCC[C@]2(C)[C@@H]([C@H](C)CCCC(C)C)CC[C@@H]12,CC(C)=O,mol_4679_solute_opt,mol_4679_solvent_opt,50,28,248.2,-1.049901111614136,Vitamin D3,acetone
4680.0,Nc1cccnn1,CC(C)=O,mol_4680_solute_opt,mol_4680_solvent_opt,50,42,288.25,-1.0275665789158503,Pyridazin-3-amine,acetone
4681.0,Cc1nc(-c2ccc(OCC(C)C)c(C#N)c2)sc1C(=O)O,CC(C)=O,mol_4681_solute_opt,mol_4681_solvent_opt,50,28,293.15,-1.0689109564510035,Febuxostat,acetone
4682.0,C[C@@H]1OC(=O)[C@H](C)OC1=O,CC(C)=O,mol_4682_solute_opt,mol_4682_solvent_opt,50,39,278.95,0.5854569668466272,L-lactide,acetone
4683.0,O=P(CCCO)(CCCO)CCCO,CC(C)=O,mol_4683_solute_opt,mol_4683_solvent_opt,50,32,293.15,-2.0209423932922,Tris(3-hydroxypropyl)phosphine oxide,acetone
4684.0,Clc1ccc(SSc2ccc(Cl)cc2)cc1,CC(C)=O,mol_4684_solute_opt,mol_4684_solvent_opt,50,38,302.95,0.1829599841896636,"4,4′-dichlorodiphenyl disulfide",acetone
4685.0,O=C(O)c1cccc(Cl)c1C(=O)c1ccccc1,CC(C)=O,mol_4685_solute_opt,mol_4685_solvent_opt,50,38,273.15,-1.6245281801309512,2-benzoyl-3-chlorobenzoic acid,acetone
4686.0,O=C1c2ccccc2C(=O)c2c(Cl)cccc21,CC(C)=O,mol_4686_solute_opt,mol_4686_solvent_opt,50,34,273.15,-1.418392765027504,1-Chloroanthraquinone,acetone
4687.0,O=C1OC(=O)c2ccc(Br)c3cccc1c23,CC(C)=O,mol_4687_solute_opt,mol_4687_solvent_opt,50,40,278.15,-1.8565849264803376,"4-bromo-1,8-naphthalic anhydride",acetone
4688.0,CC1(C)COP(=O)(C(C)(C)O)OC1,CC(C)=O,mol_4688_solute_opt,mol_4688_solvent_opt,50,32,278.15,-1.4756776824839732,"1,3,2-dioxaphosphorinane-2-methanol-α,α-5,5-tetramethyl 2-oxide",acetone
4689.0,O=P(Oc1ccccc1)(Oc1ccccc1)N1CCN(P(=O)(Oc2ccccc2)Oc2ccccc2)CC1,CC(C)=O,mol_4689_solute_opt,mol_4689_solvent_opt,50,25,293.15,-2.2386510731144247,"P,P′-(1,4-piperazinediyl)bis-,P,P,P′,P′-tetraphenyl ester (PAPBE)",acetone
4690.0,Cc1cccc(Nc2ccccc2C(=O)O)c1C,CC(C)=O,mol_4690_solute_opt,mol_4690_solvent_opt,50,23,298.0,-1.134456059716134,Mefenamic acid,acetone
4691.0,CS(=O)(=O)c1ccc(F)cc1,CC(C)=O,mol_4691_solute_opt,mol_4691_solvent_opt,50,30,290.53,0.6006470999793573,1-fluoro-4-(methylsulfonyl)benzene,acetone
4692.0,O=P12OCC(CO)(CO1)CO2,CC(C)=O,mol_4692_solute_opt,mol_4692_solvent_opt,50,41,293.85,-0.9147746215840428,"4-(hydroxymethyl)-1-oxido-2,6,7-trioxa-1-phosphabicyclo[2.2.2]octane",acetone
4693.0,O=c1c(-c2ccc(O)cc2)coc2cc(O)cc(O)c12,CC(C)=O,mol_4693_solute_opt,mol_4693_solvent_opt,50,30,288.2,-1.1822569875579845,Genistein,acetone
4694.0,O=c1c(-c2ccc(O)cc2)coc2cc(O)ccc12,CC(C)=O,mol_4694_solute_opt,mol_4694_solvent_opt,50,30,288.2,-1.0479147421041797,Daidzein,acetone
4695.0,O=C(O)c1ccco1,CC(C)=O,mol_4695_solute_opt,mol_4695_solvent_opt,50,45,280.15,0.399158287642068,2-furancarboxylic acid,acetone
4696.0,O=C(O)COC(=O)Cc1ccccc1Nc1c(Cl)cccc1Cl,CC(C)=O,mol_4696_solute_opt,mol_4696_solvent_opt,50,35,293.35,-0.1162532305541931,Aceclofenac,acetone
4697.0,C[N+](C)(C)C[C@H](O)CC(=O)[O-],CC(C)=O,mol_4697_solute_opt,mol_4697_solvent_opt,50,39,278.15,-3.005643299003112,L-carnitine,acetone
4698.0,Nc1cc(Cl)nnc1Cl,CC(C)=O,mol_4698_solute_opt,mol_4698_solvent_opt,50,45,295.65,-0.470429972598663,"4-amino-3,6-dichloropyridazine",acetone
4699.0,O=C1N2CN3C(=O)N([N+](=O)[O-])C4C3N(CN3C(=O)N([N+](=O)[O-])C(C23)N1[N+](=O)[O-])C(=O)N4[N+](=O)[O-],CC(C)=O,mol_4699_solute_opt,mol_4699_solvent_opt,50,32,293.15,-2.8174658590955066,Tetranitrodimerglycoluril (TNDGU),acetone
4700.0,O=C1Nc2ccccc2C1=O,CC(C)=O,mol_4700_solute_opt,mol_4700_solvent_opt,50,41,287.25,-0.8207493241238315,Isatin,acetone
4701.0,CC1(C)COP(=O)(C(C)(O)c2ccccc2)OC1,CC(C)=O,mol_4701_solute_opt,mol_4701_solvent_opt,50,28,278.15,-1.831166022150311,"1,3,2-dioxaphosphorinane-2-methanol-α,5,5-trimethyl-α-phenyl-2-oxide",acetone
4702.0,Nc1ccc(S(=O)(=O)O)cc1,CC(C)=O,mol_4702_solute_opt,mol_4702_solvent_opt,50,43,278.15,-2.392913096653138,Sulfanilic acid,acetone
4703.0,CCOC(=O)C1(c2ccccc2)CCN(CCC(C#N)(c2ccccc2)c2ccccc2)CC1,CC(C)=O,mol_4703_solute_opt,mol_4703_solvent_opt,50,23,293.15,-1.2353779123664608,Diphenoxylate,acetone
4704.0,CC(C)c1ccc2sc3ccccc3c(=O)c2c1,CC(C)=O,mol_4704_solute_opt,mol_4704_solvent_opt,50,33,299.15,0.2898314198912156,2-Isopropylthioxanthone (ITX),acetone
4705.0,CC(C)(C)c1cc(O)c(C(C)(C)C)cc1O,CC(C)=O,mol_4705_solute_opt,mol_4705_solvent_opt,50,26,283.35,-0.3236320519765579,"2,5-di-tert-butylhydroquinone",acetone
4706.0,Cc1ccc2ccccc2c1,CC(C)=O,mol_4706_solute_opt,mol_4706_solvent_opt,50,31,278.45,0.5890821454508044,2-methylnaphthalene,acetone
4707.0,CC[C@H](/C=C/[C@@H](C)[C@H]1CC[C@H]2[C@@H]3CC=C4C[C@@H](OC(=O)/C=C\C(=O)O)CC[C@]4(C)[C@H]3CC[C@]12C)C(C)C,CC(C)=O,mol_4707_solute_opt,mol_4707_solvent_opt,50,21,293.15,-2.2834333873408417,Stigmasteryl Maleate,acetone
4708.0,CC[C@H](CC[C@@H](C)[C@H]1CC[C@H]2[C@@H]3CC=C4C[C@@H](OC(=O)/C=C/c5ccc(O)c(OC)c5)CC[C@]4(C)[C@H]3CC[C@]12C)C(C)C,CC(C)=O,mol_4708_solute_opt,mol_4708_solvent_opt,50,20,289.75,-2.173660944961976,β-Sitosteryl Maleate,acetone
4709.0,CC(C)(O)P1(=O)OCC2(CO1)COP(=O)(C(C)(C)O)OC2,CC(C)=O,mol_4709_solute_opt,mol_4709_solvent_opt,50,36,293.6,-2.101233651604625,"2,4,8,10-tetraoxa-3,9-diphosphaspiro[5.5]undecane-3,9-dimethanol, α,α,α‘,α‘-tetramethyl-3,9-dioxide",acetone
4710.0,C=C(C)[C@@H]1CC[C@]2(CO)CC[C@]3(C)[C@H](CC[C@@H]4[C@@]5(C)CC[C@H](O)C(C)(C)[C@@H]5CC[C@]43C)[C@@H]12,CC(C)=O,mol_4710_solute_opt,mol_4710_solvent_opt,50,30,278.2,-2.1114604711998326,Betulin,acetone
4711.0,O=C(O)Cn1cnnn1,CC(C)=O,mol_4711_solute_opt,mol_4711_solvent_opt,50,32,288.23,0.1653238127533421,1H-Tetrazole-1-acetic Acid,acetone
4712.0,O=[N+]([O-])N1CN([N+](=O)[O-])CN([N+](=O)[O-])C1,CC(C)=O,mol_4712_solute_opt,mol_4712_solvent_opt,50,45,273.15,-0.737435429071234,Cyclotrimethylenetrinitramine (rdx),acetone
4713.0,CCCCC1=NC2(CCCC2)C(=O)N1Cc1ccc(-c2ccccc2-c2nn[nH]n2)cc1,CC(C)=O,mol_4713_solute_opt,mol_4713_solvent_opt,50,27,278.35,-2.403887036815328,Irbesartan,acetone
4714.0,O=P1(c2cc(O)ccc2O)Oc2ccccc2-c2ccccc21,CC(C)=O,mol_4714_solute_opt,mol_4714_solvent_opt,50,26,292.15,-1.6801369205364574,"2-(6-oxido-6H-dibenz[c,e][1,2]oxaphosphorin-6-yl)-1,4-dihydroxy phenylene",acetone
4715.0,CCc1ccc(C(=O)c2ccccc2C(=O)O)cc1,CC(C)=O,mol_4715_solute_opt,mol_4715_solvent_opt,50,31,280.25,-1.681303618312194,2-(4-ethylbenzoyl)benzoic acid,acetone
4716.0,COc1cc(Cc2cnc(N)nc2N)cc(OC)c1OC,CC(C)=O,mol_4716_solute_opt,mol_4716_solvent_opt,50,28,276.94,-2.19721641964981,Trimethoprim,acetone
4717.0,CCCCCCCCCCCCCCCCCC(=O)O,CC(C)=O,mol_4717_solute_opt,mol_4717_solvent_opt,50,26,291.95,-1.2402899498937268,Stearic acid,acetone
4718.0,CC(C)(C)C(=O)OCOP(=O)(COCCn1cnc2c(N)ncnc21)OCOC(=O)C(C)(C)C,CC(C)=O,mol_4718_solute_opt,mol_4718_solvent_opt,50,24,298.15,-0.018965827646376,Adefovir dipivoxil,acetone
4719.0,CO[C@H]1/C=C/O[C@@]2(C)Oc3c(C)c(O)c4c(O)c(c(/C=N/N5CCN(C6CCCC6)CC5)c(O)c4c3C2=O)NC(=O)/C(C)=C\C=C\[C@H](C)[C@H](O)[C@@H](C)[C@@H](O)[C@@H](C)[C@H](OC(C)=O)[C@@H]1C,CC(C)=O,mol_4719_solute_opt,mol_4719_solvent_opt,50,14,278.15,-2.138203599426998,Rifapentine,acetone
4720.0,O=P(O)(c1ccccc1)c1ccccc1,CC(C)=O,mol_4720_solute_opt,mol_4720_solvent_opt,50,35,293.25,-2.1583964325614904,Diphenylphosphinic acid,acetone
4721.0,O=C1O[C@H]([C@@H](O)CO)C(O)=C1O,CC(C)=O,mol_4721_solute_opt,mol_4721_solvent_opt,50,37,293.0,-2.45094386380431,Vitamin C,acetone
4722.0,CC[C@H](C)C(=O)O[C@H]1C[C@@H](C)C=C2C=C[C@H](C)[C@H](CC[C@@H]3C[C@@H](O)CC(=O)O3)[C@H]21,CC(C)=O,mol_4722_solute_opt,mol_4722_solvent_opt,50,27,278.65,-1.049797583372981,Lovastatin,acetone
4723.0,NNC(=O)c1ccncc1,CC(C)=O,mol_4723_solute_opt,mol_4723_solvent_opt,50,39,301.0,-0.8910961539991872,Isoniazid,acetone
4724.0,CC(=O)C1=CC[C@H]2[C@@H]3CCC4=CC(=O)C=C[C@]4(C)[C@H]3[C@@H](O)C[C@]12C,CC(C)=O,mol_4724_solute_opt,mol_4724_solvent_opt,50,31,298.15,-1.5842040234415742,"11β-hydroxypregna-1,4,16-triene-3,20-dione",acetone
4725.0,O=C1C=CC(=O)c2ccccc21,CC(C)=O,mol_4725_solute_opt,mol_4725_solvent_opt,50,38,293.27,-0.2916036437120983,"1,4-naphthoquinone",acetone
4726.0,c1ccc2ccccc2c1,CC(C)=O,mol_4726_solute_opt,mol_4726_solvent_opt,50,40,278.15,0.2927844042108155,Naphthalene,acetone
4727.0,CCCCCCCCCCCCCCCC(=O)O,CC(C)=O,mol_4727_solute_opt,mol_4727_solvent_opt,50,33,292.85,-0.7851893011189993,Palmitic acid,acetone
4728.0,c1cc2c3c(cccc3c1)CC2,CC(C)=O,mol_4728_solute_opt,mol_4728_solvent_opt,50,35,283.0,-0.2213391760702971,Acenaphthene,acetone
4729.0,Clc1ccc2c(Cl)ccnc2c1,CC(C)=O,mol_4729_solute_opt,mol_4729_solvent_opt,50,36,299.2,-0.0720554734201566,"4,7-dichloroquinoline",acetone
4730.0,CCCCCCCCCCCC(=O)O,CC(C)=O,mol_4730_solute_opt,mol_4730_solvent_opt,50,30,286.6,0.0737450529090181,Lauric acid,acetone
4731.0,CN1CCN(c2cc3c(cc2F)c(=O)c(C(=O)O)cn3-c2ccc(F)cc2)CC1,CC(C)=O,mol_4731_solute_opt,mol_4731_solvent_opt,50,22,293.15,-1.1480769788587166,Difloxacin,acetone
4732.0,Nc1ccccn1,CC(C)=O,mol_4732_solute_opt,mol_4732_solvent_opt,50,45,288.15,0.9978008435279644,2-aminopyridine,acetone
4733.0,CC1=C(/C=C/C(C)=C/C=C/C(C)=C/C=C/C=C(C)/C=C/C=C(C)/C=C/C2=C(C)C(=O)CCC2(C)C)C(C)(C)CCC1=O,CC(C)=O,mol_4733_solute_opt,mol_4733_solvent_opt,50,20,293.15,-3.576301465708131,Canthaxanthin,acetone
4734.0,O=C1OC(=O)c2c(Cl)cccc21,CC(C)=O,mol_4734_solute_opt,mol_4734_solvent_opt,50,45,283.15,0.4419094270470056,3-chlorophthalic anhydride,acetone
4735.0,O=C1OC(=O)c2cc(Cl)ccc21,CC(C)=O,mol_4735_solute_opt,mol_4735_solvent_opt,50,43,283.15,0.5413401450229037,4-chlorophthalic anhydride,acetone
4736.0,Nc1cccnc1,CC(C)=O,mol_4736_solute_opt,mol_4736_solvent_opt,50,43,288.15,0.3998997516602464,3-aminopyridine,acetone
4737.0,O=C(O)/C=C/C(=O)O,CC(C)=O,mol_4737_solute_opt,mol_4737_solvent_opt,50,44,279.0,-1.3195971964269002,Fumaric acid,acetone
4738.0,Cn1[nH]c(=O)c(=O)[nH]c1=S,CC(C)=O,mol_4738_solute_opt,mol_4738_solvent_opt,50,43,293.25,-0.6844158125406424,Thiotriazinone,acetone
4739.0,CCCCCCCCCCCCCCCc1cccc(O)c1,CC(C)=O,mol_4739_solute_opt,mol_4739_solvent_opt,50,22,289.08,0.6662399207997419,3-pentadecylphenol,acetone
4740.0,C[C@H](CS)C(=O)N1CCC[C@H]1C(=O)O,CC(C)=O,mol_4740_solute_opt,mol_4740_solvent_opt,50,31,278.15,-0.4097310845424911,Captopril,acetone
4741.0,COc1cnc(Cl)nc1Cl,CC(C)=O,mol_4741_solute_opt,mol_4741_solvent_opt,50,42,297.35,0.8579695181769295,"2,4-dichloro-5-methoxypyrimidine",acetone
4742.0,O=P(c1ccccc1)(c1ccccc1)c1cc(O)ccc1O,CC(C)=O,mol_4742_solute_opt,mol_4742_solvent_opt,50,30,299.45,-1.6263266371960052,"(2,5-dihydroxyphenyl)diphenyl phosphine oxide",acetone
4743.0,Nc1ccc(S(=O)(=O)Nc2ncccn2)cc1,CC(C)=O,mol_4743_solute_opt,mol_4743_solvent_opt,50,36,294.15,-3.091266769103711,Sulfadiazine,acetone
4744.0,Oc1cc(O)c2cc(O)c(-c3cc(O)c(O)c(O)c3)[o+]c2c1,CC(C)=O,mol_4744_solute_opt,mol_4744_solvent_opt,50,37,298.15,-9.128882789071405,Delphinidin,acetone
4745.0,CC[C@H](CC[C@@H](C)[C@H]1CC[C@H]2[C@@H]3CC=C4C[C@@H](O)CC[C@]4(C)[C@H]3CC[C@]12C)C(C)C,CC(C)=O,mol_4745_solute_opt,mol_4745_solvent_opt,50,23,278.15,-1.4187857303696705,β-Sitosterol,acetone
4746.0,O=C(C(=O)c1ccccc1)c1ccccc1,CC(C)=O,mol_4746_solute_opt,mol_4746_solvent_opt,50,36,298.15,0.4105952180045112,Benzil,acetone
4747.0,c1ccc2cc3ccccc3cc2c1,CCCCO,mol_4747_solute_opt,mol_4747_solvent_opt,50,43,298.15,-2.0597330734612944,Anthracene,n-butanol
4748.0,O=C(C(=O)c1ccccc1)c1ccccc1,CCCCO,mol_4748_solute_opt,mol_4748_solvent_opt,50,42,298.15,-0.8420611728695979,Benzil,n-butanol
4749.0,CCCCCCCCCCCCCCCCCCCC(=O)OCCO,CCCCO,mol_4749_solute_opt,mol_4749_solvent_opt,50,32,303.75,-2.187598789336531,Ethylene glycol monoeicosate,n-butanol
4750.0,CCCCCCCCCCCCCCCCCCCCCC(=O)OCCO,CCCCO,mol_4750_solute_opt,mol_4750_solvent_opt,50,29,295.85,-2.360527012359539,Ethylene glycol monobehenate,n-butanol
4751.0,O=[N+]([O-])c1cccc2ccccc12,CCCCO,mol_4751_solute_opt,mol_4751_solvent_opt,50,44,298.15,-0.4062347672364073,1-nitronaphthalene,n-butanol
4752.0,CC(=O)NCC(=O)O,CCCCO,mol_4752_solute_opt,mol_4752_solvent_opt,50,40,278.15,-1.796578019521652,N-acetylglycine,n-butanol
4753.0,COc1ccc2nc(SCc3ncc(C)c(OC)c3C)[nH]c2c1,CCCCO,mol_4753_solute_opt,mol_4753_solvent_opt,50,30,280.35,-0.9391204531307012,Omeprazole sulfide,n-butanol
4754.0,O=C(O)[C@H](O)[C@@H](O)C(=O)O,CCCCO,mol_4754_solute_opt,mol_4754_solvent_opt,50,36,281.15,-0.7006737358079607,L-tartaric acid,n-butanol
4755.0,COC1=C(OC)C(=O)C(C/C=C(\C)CC/C=C(\C)CC/C=C(\C)CC/C=C(\C)CC/C=C(\C)CC/C=C(\C)CC/C=C(\C)CC/C=C(\C)CC/C=C(\C)CCC=C(C)C)=C(C)C1=O,CCCCO,mol_4755_solute_opt,mol_4755_solvent_opt,50,28,270.15,-3.9523489927938544,Coenzyme Q10,n-butanol
4756.0,Cc1cc(=O)c(C(=O)N[C@@H](C(=O)N[C@@H]2C(=O)N3C(C(=O)O)=C(CSc4nnnn4C)CS[C@H]23)c2ccc(O)cc2)c[nH]1,CCCCO,mol_4756_solute_opt,mol_4756_solvent_opt,50,34,278.2,-2.976452211756102,Cefpiramide,n-butanol
4757.0,CC(=O)CCc1ccc(O)cc1,CCCCO,mol_4757_solute_opt,mol_4757_solvent_opt,50,40,283.15,-0.0782949453046175,4-(4-hydroxyphenyl)-2-butanone (raspberry ketone),n-butanol
4758.0,Cc1ccc(C)c(O)c1,CCCCO,mol_4758_solute_opt,mol_4758_solvent_opt,50,38,281.15,0.6916672417625758,"2,5-dimethylphenol",n-butanol
4759.0,Cc1ccc(O)cc1C,CCCCO,mol_4759_solute_opt,mol_4759_solvent_opt,50,41,281.75,0.9241154182771856,"3,4-dimethylphenol",n-butanol
4760.0,CC(=O)c1c(O)ccc2ccccc12,CCCCO,mol_4760_solute_opt,mol_4760_solvent_opt,50,42,282.55,-0.188252666327795,1-acetyl-2-naphthol,n-butanol
4761.0,CC(=O)c1ccc2ccccc2c1O,CCCCO,mol_4761_solute_opt,mol_4761_solvent_opt,50,41,280.85,-1.22191081988717,2-acetyl-1-naphthol,n-butanol
4762.0,CC(CO)(CO)CO,CCCCO,mol_4762_solute_opt,mol_4762_solvent_opt,50,42,283.15,-0.3540053459113172,Trimethylolethane,n-butanol
4763.0,O=[N+]([O-])c1c[nH]cn1,CCCCO,mol_4763_solute_opt,mol_4763_solvent_opt,50,42,278.15,-1.2974963208042445,4-nitroimidazole,n-butanol
4764.0,COc1cc(NS(=O)(=O)c2ccc(N)cc2)ncn1,CCCCO,mol_4764_solute_opt,mol_4764_solvent_opt,50,40,305.2,-2.8983731757196667,Sulfamonomethoxine,n-butanol
4765.0,O=[N+]([O-])c1cc([N+](=O)[O-])c(Cl)c(Cl)c1Cl,CCCCO,mol_4765_solute_opt,mol_4765_solvent_opt,50,45,278.15,-1.7115190841069754,"2,3,4-trichloro-1,5-dinitrobenzene",n-butanol
4766.0,O=C1c2ccccc2-c2ccccc21,CCCCO,mol_4766_solute_opt,mol_4766_solvent_opt,50,43,278.15,-0.874820284282167,9-fluorenone,n-butanol
4767.0,CCC(C)(C)C(=O)O[C@H]1C[C@@H](C)C=C2C=C[C@H](C)[C@H](CC[C@@H]3C[C@@H](O)CC(=O)O3)[C@H]21,CCCCO,mol_4767_solute_opt,mol_4767_solvent_opt,50,29,279.1,-0.699222318593781,Simvastatin,n-butanol
4768.0,C[C@H]1COc2c(N3CCN(C)CC3)c(F)cc3c(=O)c(C(=O)O)cn1c23,CCCCO,mol_4768_solute_opt,mol_4768_solvent_opt,50,26,288.15,-1.7967192252566366,Levofloxacin,n-butanol
4769.0,Cc1c(OCC(F)(F)F)ccnc1CS(=O)c1nc2ccccc2[nH]1,CCCCO,mol_4769_solute_opt,mol_4769_solvent_opt,50,31,283.15,-1.8783872416859289,Lansoprazole,n-butanol
4770.0,O=C(O)CC(S)C(=O)O,CCCCO,mol_4770_solute_opt,mol_4770_solvent_opt,50,41,278.15,0.0443858790769941,Thiomalic acid,n-butanol
4771.0,C/C=C/C(=O)O,CCCCO,mol_4771_solute_opt,mol_4771_solvent_opt,50,45,278.15,0.4579491413184561,Crotonic acid,n-butanol
4772.0,O=C(O)C[C@H](O)C(=O)O,CCCCO,mol_4772_solute_opt,mol_4772_solvent_opt,50,39,278.15,0.0022823752873153,L-malic acid,n-butanol
4773.0,O=C1C=CC(=O)O1,CCCCO,mol_4773_solute_opt,mol_4773_solvent_opt,50,46,278.15,-1.3989099752802805,Maleic anhydride,n-butanol
4774.0,Cc1nc2n(c(=O)c1CCN1CCC(c3noc4cc(F)ccc34)CC1)CCCC2,CCCCO,mol_4774_solute_opt,mol_4774_solvent_opt,50,31,278.15,-1.7730621286168762,Risperidone,n-butanol
4775.0,CCn1c2ccccc2c2ccccc21,CCCCO,mol_4775_solute_opt,mol_4775_solvent_opt,50,40,279.15,-0.8197329703368118,N-ethylcarbazole,n-butanol
4776.0,O=C(O)CN(CC(=O)O)CP(=O)(O)O,CCCCO,mol_4776_solute_opt,mol_4776_solvent_opt,50,42,293.15,-2.9100791013664176,N-(phosphonomethyl)iminodiacetic acid,n-butanol
4777.0,CCCCCOC(=O)Nc1nc(=O)n([C@@H]2O[C@H](C)[C@@H](O)[C@H]2O)cc1F,CCCCO,mol_4777_solute_opt,mol_4777_solvent_opt,50,31,278.1,-1.6324139189567652,Capecitabine,n-butanol
4778.0,Cc1cc(C)c(C(=O)P(=O)(c2ccccc2)c2ccccc2)c(C)c1,CCCCO,mol_4778_solute_opt,mol_4778_solvent_opt,50,30,273.15,-0.0172120950325478,"(2,4,6-trimethylbenzoyl) diphenylphosphine oxide",n-butanol
4779.0,CC1(C)CCC2=C(O1)c1ccccc1C(=O)C2=O,CCCCO,mol_4779_solute_opt,mol_4779_solvent_opt,50,41,298.15,-1.089485929757624,β-lapachone,n-butanol
4780.0,Cn1cc([N+](=O)[O-])cn1,CCCCO,mol_4780_solute_opt,mol_4780_solvent_opt,50,40,283.15,-1.6455637347975802,1-methyl-4-nitropyrazole,n-butanol
4781.0,Nc1nc(N)nc(NC2CC2)n1,CCCCO,mol_4781_solute_opt,mol_4781_solvent_opt,50,33,283.15,-2.0938124231185062,Cyromazine,n-butanol
4782.0,CC(=O)NS(=O)(=O)c1ccc(N)cc1,CCCCO,mol_4782_solute_opt,mol_4782_solvent_opt,50,43,293.15,-1.2896630661807251,Sulfacetamide,n-butanol
4783.0,Oc1ccc(/C=C/c2cc(O)cc(O)c2)cc1,CCCCO,mol_4783_solute_opt,mol_4783_solvent_opt,50,33,278.2,-1.3410183782820526,Trans-resveratrol,n-butanol
4784.0,C[C@@H]1O[C@@H](OC[C@H]2O[C@@H](Oc3cc(O)c4c(=O)cc(-c5ccccc5O)oc4c3)[C@H](O)[C@@H](O)[C@@H]2O)[C@H](O)[C@H](O)[C@H]1O,CCCCO,mol_4784_solute_opt,mol_4784_solvent_opt,50,27,288.2,-4.005390255317372,Apigenin 7-O-rhamnosylglucoside,n-butanol
4785.0,O=c1cc(-c2ccc(O)cc2)oc2cc(O)cc(O)c12,CCCCO,mol_4785_solute_opt,mol_4785_solvent_opt,50,39,288.2,-2.280001134419668,Apigenin,n-butanol
4786.0,C[C@@H]1CC[C@@]2(OC1)O[C@H]1C[C@H]3[C@@H]4CC=C5C[C@@H](O)CC[C@]5(C)[C@H]4CC[C@]3(C)[C@H]1[C@@H]2C,CCCCO,mol_4786_solute_opt,mol_4786_solvent_opt,50,31,295.75,-1.2891240144637155,Diosgenin,n-butanol
4787.0,Brc1sc(Br)c(Br)c1Br,CCCCO,mol_4787_solute_opt,mol_4787_solvent_opt,50,43,278.05,-1.5277721196024077,"2,3,4,5-tetrabromothiophene",n-butanol
4788.0,O=C(O)c1ccccc1O,CCCCO,mol_4788_solute_opt,mol_4788_solvent_opt,50,39,278.15,0.1197751602084968,Salicylic acid,n-butanol
4789.0,CN1c2ccccc2C(=O)N2CCc3c([nH]c4ccccc34)[C@H]21,CCCCO,mol_4789_solute_opt,mol_4789_solvent_opt,50,33,283.2,-2.9083402002513927,Evodiamine,n-butanol
4790.0,CC(C)(C)C(=O)C(Oc1ccc(Cl)cc1)n1ccnc1,CCCCO,mol_4790_solute_opt,mol_4790_solvent_opt,50,37,278.15,-0.013909260228884,Climbazole,n-butanol
4791.0,CC(=O)S[C@@H]1CC2=CC(=O)CC[C@]2(C)[C@H]2CC[C@@]3(C)[C@@H](CC[C@@]34CCC(=O)O4)[C@H]12,CCCCO,mol_4791_solute_opt,mol_4791_solvent_opt,50,37,278.95,-1.6679172937896214,Spironolactone,n-butanol
4792.0,C/C=C/C=C/C(=O)O,CCCCO,mol_4792_solute_opt,mol_4792_solvent_opt,50,41,285.15,-0.1391802714526474,Sorbic acid,n-butanol
4793.0,O=c1c(-c2ccc(O)cc2)coc2cc(O[C@@H]3O[C@H](CO)[C@@H](O)[C@H](O)[C@H]3O)ccc12,CCCCO,mol_4793_solute_opt,mol_4793_solvent_opt,50,39,283.2,-2.8077108432012485,Daidzin,n-butanol
4794.0,O=c1c(-c2ccc(O)cc2)coc2cc(O[C@@H]3O[C@H](CO)[C@@H](O)[C@H](O)[C@H]3O)cc(O)c12,CCCCO,mol_4794_solute_opt,mol_4794_solvent_opt,50,33,283.2,-4.278176894082942,Genistin,n-butanol
4795.0,O=[N+]([O-])c1nonc1-c1no[n+]([O-])c1-c1nonc1[N+](=O)[O-],CCCCO,mol_4795_solute_opt,mol_4795_solvent_opt,50,37,298.15,-1.3085423494099508,"3,4-bis(3-nitrofurazan-4-yl)furoxan",n-butanol
4796.0,O=[N+]([O-])c1cccc2cccc([N+](=O)[O-])c12,CCCCO,mol_4796_solute_opt,mol_4796_solvent_opt,50,40,273.15,-2.7623165239496674,"1,8-dinitronaphthalene",n-butanol
4797.0,CC1=C(O)C(=O)C(C)O1,CCCCO,mol_4797_solute_opt,mol_4797_solvent_opt,50,40,283.15,0.0655203018937209,"4-hydroxy-2,5-dimethyl-3(2H)-furanone (DMHF)",n-butanol
4798.0,Cc1ccc(C(C)C)c(O)c1,CCCCO,mol_4798_solute_opt,mol_4798_solvent_opt,50,40,279.15,0.7354869874988031,Thymol,n-butanol
4799.0,O=C1NC(=O)c2ccccc21,CCCCO,mol_4799_solute_opt,mol_4799_solvent_opt,50,42,283.15,-1.7364798940583333,Phthalimide,n-butanol
4800.0,COc1ccc2nc(S(=O)Cc3ncc(C)c(OC)c3C)[nH]c2c1,CCCCO,mol_4800_solute_opt,mol_4800_solvent_opt,50,40,278.15,-1.8471211984794804,Omeprazole,n-butanol