pair_id,SMILES_Solute,SMILES_Solvent,Solute_name,Solvent_name,Total_conformers,Filtered_conformers,Temperature_K,LogS,Compound_Name,Solvent
3516.0,Nc1cccnn1,CCOC(C)=O,mol_3516_solute_opt,mol_3516_solvent_opt,50,45,288.45,-1.628803722943741,Pyridazin-3-amine,ethyl acetate
3517.0,Cc1nc(-c2ccc(OCC(C)C)c(C#N)c2)sc1C(=O)O,CCOC(C)=O,mol_3517_solute_opt,mol_3517_solvent_opt,50,38,293.15,-1.413509766828127,Febuxostat,ethyl acetate
3518.0,C[C@@H]1OC(=O)[C@H](C)OC1=O,CCOC(C)=O,mol_3518_solute_opt,mol_3518_solvent_opt,50,47,277.05,0.1327136595745121,L-lactide,ethyl acetate
3519.0,CC(=O)N1CN(C(C)=O)CN(C(C)=O)C1,CCOC(C)=O,mol_3519_solute_opt,mol_3519_solvent_opt,50,41,298.0,-0.802026295592522,"1,3,5-Triacetyl-hexahydro-s-triazine",ethyl acetate
3520.0,Clc1ccc(SSc2ccc(Cl)cc2)cc1,CCOC(C)=O,mol_3520_solute_opt,mol_3520_solvent_opt,50,39,303.95,-0.684978748439378,"4,4′-dichlorodiphenyl disulfide",ethyl acetate
3521.0,COc1ccc(C(=O)O)cc1OC,CCOC(C)=O,mol_3521_solute_opt,mol_3521_solvent_opt,50,37,278.3,-1.4119577485470187,Veratric acid,ethyl acetate
3522.0,O=C(O)[C@@H](O)CCc1ccccc1,CCOC(C)=O,mol_3522_solute_opt,mol_3522_solvent_opt,50,40,278.2,0.0968212960605978,(S)-2-hydroxy-4-phenylbutyric acid,ethyl acetate
3523.0,Nc1ccc(Sc2ccc([N+](=O)[O-])cc2)cc1,CCOC(C)=O,mol_3523_solute_opt,mol_3523_solvent_opt,50,44,290.45,-0.2577136407271145,4-amino-4′-nitrodiphenyl sulfide,ethyl acetate
3524.0,O=c1c2ccccc2nc2n1CCc1c-2[nH]c2ccccc12,CCOC(C)=O,mol_3524_solute_opt,mol_3524_solvent_opt,50,35,283.2,-1.9676156523863644,Rutaecarpine,ethyl acetate
3525.0,O=C(O)c1cccc(Cl)c1C(=O)c1ccccc1,CCOC(C)=O,mol_3525_solute_opt,mol_3525_solvent_opt,50,35,273.15,-1.2403267539874248,2-benzoyl-3-chlorobenzoic acid,ethyl acetate
3526.0,O=C1c2ccccc2C(=O)c2c(Cl)cccc21,CCOC(C)=O,mol_3526_solute_opt,mol_3526_solvent_opt,50,40,273.15,-1.4521438300750549,1-Chloroanthraquinone,ethyl acetate
3527.0,CC1(C)COP(=O)(C(C)(C)O)OC1,CCOC(C)=O,mol_3527_solute_opt,mol_3527_solvent_opt,50,43,293.75,-1.879724803321038,"1,3,2-dioxaphosphorinane-2-methanol-α,α-5,5-tetramethyl 2-oxide",ethyl acetate
3528.0,c1ccc(CSSCc2ccccc2)cc1,CCOC(C)=O,mol_3528_solute_opt,mol_3528_solvent_opt,50,42,285.55,-0.4506231600315101,Benzyl disulfide,ethyl acetate
3529.0,O=P(Oc1ccccc1)(Oc1ccccc1)N1CCN(P(=O)(Oc2ccccc2)Oc2ccccc2)CC1,CCOC(C)=O,mol_3529_solute_opt,mol_3529_solvent_opt,50,36,293.15,-2.073370716994173,"P,P′-(1,4-piperazinediyl)bis-,P,P,P′,P′-tetraphenyl ester (PAPBE)",ethyl acetate
3530.0,O=[N+]([O-])c1nonc1-c1no[n+]([O-])c1-c1nonc1[N+](=O)[O-],CCOC(C)=O,mol_3530_solute_opt,mol_3530_solvent_opt,50,42,298.15,-0.1959877884624477,"3,4-bis(3-nitrofurazan-4-yl)furoxan",ethyl acetate
3531.0,CCNc1nc(Cl)nc(NC(C)C)n1,CCOC(C)=O,mol_3531_solute_opt,mol_3531_solvent_opt,50,37,283.15,-1.0722119354600028,Atrazine,ethyl acetate
3532.0,Cc1cccc(Nc2ccccc2C(=O)O)c1C,CCOC(C)=O,mol_3532_solute_opt,mol_3532_solvent_opt,50,40,298.0,-1.400652121562688,Mefenamic acid,ethyl acetate
3533.0,O=C(O)c1cc2ccccc2[nH]1,CCOC(C)=O,mol_3533_solute_opt,mol_3533_solvent_opt,50,44,284.05,-0.3297384544309092,Indole-2-carboxylic acid,ethyl acetate
3534.0,CS(=O)(=O)c1ccc(F)cc1,CCOC(C)=O,mol_3534_solute_opt,mol_3534_solvent_opt,50,39,293.28,0.3757114081320379,1-fluoro-4-(methylsulfonyl)benzene,ethyl acetate
3535.0,O=P12OCC(CO)(CO1)CO2,CCOC(C)=O,mol_3535_solute_opt,mol_3535_solvent_opt,50,45,293.25,-2.0263898588293485,"4-(hydroxymethyl)-1-oxido-2,6,7-trioxa-1-phosphabicyclo[2.2.2]octane",ethyl acetate
3536.0,O=[N+]([O-])c1ccc(Cl)c(Cl)c1,CCOC(C)=O,mol_3536_solute_opt,mol_3536_solvent_opt,50,43,278.15,0.5377036094384217,"3,4-dichloronitrobenzene",ethyl acetate
3537.0,O=[N+]([O-])c1cccc(Cl)c1Cl,CCOC(C)=O,mol_3537_solute_opt,mol_3537_solvent_opt,50,47,278.15,0.4489224808035124,"2,3-dichloronitrobenzene",ethyl acetate
3538.0,O=c1c(-c2ccc(O)cc2)coc2cc(O)cc(O)c12,CCOC(C)=O,mol_3538_solute_opt,mol_3538_solvent_opt,50,38,288.2,-1.7245971250819825,Genistein,ethyl acetate
3539.0,O=c1c(-c2ccc(O)cc2)coc2cc(O)ccc12,CCOC(C)=O,mol_3539_solute_opt,mol_3539_solvent_opt,50,41,288.2,-3.1451923094845986,Daidzein,ethyl acetate
3540.0,O=C(O)c1ccco1,CCOC(C)=O,mol_3540_solute_opt,mol_3540_solvent_opt,50,42,281.35,-0.0111057905008284,2-furancarboxylic acid,ethyl acetate
3541.0,O=C(O)COC(=O)Cc1ccccc1Nc1c(Cl)cccc1Cl,CCOC(C)=O,mol_3541_solute_opt,mol_3541_solvent_opt,50,40,293.55,-0.4966904222978082,Aceclofenac,ethyl acetate
3542.0,CCN1CCN(c2cc3c(cc2F)c(=O)c(C(=O)O)cn3C2CC2)CC1,CCOC(C)=O,mol_3542_solute_opt,mol_3542_solvent_opt,50,34,303.15,-1.9735344761279143,Enrofloxacin,ethyl acetate
3543.0,Nc1cc(Cl)nnc1Cl,CCOC(C)=O,mol_3543_solute_opt,mol_3543_solvent_opt,50,47,295.65,-1.9458896641533872,"4-amino-3,6-dichloropyridazine",ethyl acetate
3544.0,Oc1cccc(/C=N\NC(=S)NC2CCCCC2)c1,CCOC(C)=O,mol_3544_solute_opt,mol_3544_solvent_opt,50,37,298.15,-0.9714619964259438,(2Z)-N-cyclohexyl-2-(3-hydroxybenzylidine) hydrazine carbothioamide,ethyl acetate
3545.0,O=C1N2CN3C(=O)N([N+](=O)[O-])C4C3N(CN3C(=O)N([N+](=O)[O-])C(C23)N1[N+](=O)[O-])C(=O)N4[N+](=O)[O-],CCOC(C)=O,mol_3545_solute_opt,mol_3545_solvent_opt,50,33,293.15,-2.878876007137741,Tetranitrodimerglycoluril (TNDGU),ethyl acetate
3546.0,O=C1Nc2ccccc2C1=O,CCOC(C)=O,mol_3546_solute_opt,mol_3546_solvent_opt,50,47,288.15,-1.3618852842439042,Isatin,ethyl acetate
3547.0,O=C(O)c1ccc(O)c(O)c1,CCOC(C)=O,mol_3547_solute_opt,mol_3547_solvent_opt,50,43,293.15,-1.3090218883552558,Protocatechuic acid,ethyl acetate
3548.0,CC1(C)COP(=O)(C(C)(O)c2ccccc2)OC1,CCOC(C)=O,mol_3548_solute_opt,mol_3548_solvent_opt,50,36,297.95,-2.2607554931289515,"1,3,2-dioxaphosphorinane-2-methanol-α,5,5-trimethyl-α-phenyl-2-oxide",ethyl acetate
3549.0,COC(=O)[C@H]1[C@H]2C[C@@H]3c4[nH]c5cc(OC)ccc5c4CCN3C[C@H]2C[C@@H](OC(=O)c2cc(OC)c(OC)c(OC)c2)[C@@H]1OC,CCOC(C)=O,mol_3549_solute_opt,mol_3549_solvent_opt,50,24,298.15,-2.276393378235963,Reserpine,ethyl acetate
3550.0,CC1(C)COC(=O)[C@@H]1O,CCOC(C)=O,mol_3550_solute_opt,mol_3550_solvent_opt,50,44,288.15,0.6241249723602523,D-pantolactone,ethyl acetate
3551.0,C[C@@H]1O[C@@H](O[C@H]2[C@H](Oc3cc(O)c4c(c3)O[C@H](c3ccc(O)cc3)CC4=O)O[C@H](CO)[C@@H](O)[C@@H]2O)[C@H](O)[C@H](O)[C@H]1O,CCOC(C)=O,mol_3551_solute_opt,mol_3551_solvent_opt,50,30,288.15,-2.7225842979825554,Naringin,ethyl acetate
3552.0,O=C1C[C@@H](c2ccc(O)cc2)Oc2cc(O)cc(O)c21,CCOC(C)=O,mol_3552_solute_opt,mol_3552_solvent_opt,50,36,288.15,-0.9841167321162207,Naringenin,ethyl acetate
3553.0,CC(C)c1ccc2sc3ccccc3c(=O)c2c1,CCOC(C)=O,mol_3553_solute_opt,mol_3553_solvent_opt,50,37,305.25,0.3788942633473538,2-Isopropylthioxanthone (ITX),ethyl acetate
3554.0,COc1ccc(C(=O)O)c(OC)c1,CCOC(C)=O,mol_3554_solute_opt,mol_3554_solvent_opt,50,43,288.15,-0.7629376782839838,"2,4-dimethoxybenzoic acid",ethyl acetate
3555.0,CC(C)(C)c1cc(O)c(C(C)(C)C)cc1O,CCOC(C)=O,mol_3555_solute_opt,mol_3555_solvent_opt,50,33,278.95,0.2451829575756686,"2,5-di-tert-butylhydroquinone",ethyl acetate
3556.0,C=C1CCC[C@]2(C)C[C@]3(O)OC(=O)C(C)=C3C[C@@H]12,CCOC(C)=O,mol_3556_solute_opt,mol_3556_solvent_opt,50,36,283.2,-0.6239552287710378,Atractylenolide III,ethyl acetate
3557.0,CC[C@H](/C=C/[C@@H](C)[C@H]1CC[C@H]2[C@@H]3CC=C4C[C@@H](OC(=O)/C=C\C(=O)O)CC[C@]4(C)[C@H]3CC[C@]12C)C(C)C,CCOC(C)=O,mol_3557_solute_opt,mol_3557_solvent_opt,50,33,288.15,-1.822659869192438,Stigmasteryl Maleate,ethyl acetate
3558.0,CC[C@H](CC[C@@H](C)[C@H]1CC[C@H]2[C@@H]3CC=C4C[C@@H](OC(=O)/C=C/c5ccc(O)c(OC)c5)CC[C@]4(C)[C@H]3CC[C@]12C)C(C)C,CCOC(C)=O,mol_3558_solute_opt,mol_3558_solvent_opt,50,32,288.15,-2.443303074357434,β-Sitosteryl Maleate,ethyl acetate
3559.0,C=C(C)[C@@H]1CC[C@]2(CO)CC[C@]3(C)[C@H](CC[C@@H]4[C@@]5(C)CC[C@H](O)C(C)(C)[C@@H]5CC[C@]43C)[C@@H]12,CCOC(C)=O,mol_3559_solute_opt,mol_3559_solvent_opt,50,26,278.2,-1.9976663085204616,Betulin,ethyl acetate
3560.0,O=C(O)Cn1cnnn1,CCOC(C)=O,mol_3560_solute_opt,mol_3560_solvent_opt,50,47,288.27,-0.9002783152366876,1H-Tetrazole-1-acetic Acid,ethyl acetate
3561.0,CC(C)(C)C(=O)OCOP(=O)(COCCn1cnc2c(N)ncnc21)OCOC(=O)C(C)(C)C,CCOC(C)=O,mol_3561_solute_opt,mol_3561_solvent_opt,50,33,298.15,-0.562480220322144,Adefovir dipivoxil,ethyl acetate
3562.0,O=P(O)(c1ccccc1)c1ccccc1,CCOC(C)=O,mol_3562_solute_opt,mol_3562_solvent_opt,50,40,293.06,-2.274235115202917,Diphenylphosphinic acid,ethyl acetate
3563.0,O=C1O[C@H]([C@@H](O)CO)C(O)=C1O,CCOC(C)=O,mol_3563_solute_opt,mol_3563_solvent_opt,50,40,293.0,-2.990385218790326,Vitamin C,ethyl acetate
3564.0,CC[C@H](C)C(=O)O[C@H]1C[C@@H](C)C=C2C=C[C@H](C)[C@H](CC[C@@H]3C[C@@H](O)CC(=O)O3)[C@H]21,CCOC(C)=O,mol_3564_solute_opt,mol_3564_solvent_opt,50,28,285.1,-1.363802709041121,Lovastatin,ethyl acetate
3565.0,c1ccc2ccccc2c1,CCOC(C)=O,mol_3565_solute_opt,mol_3565_solvent_opt,50,47,278.2,0.3430657735773469,Naphthalene,ethyl acetate
3566.0,Nc1ccccn1,CCOC(C)=O,mol_3566_solute_opt,mol_3566_solvent_opt,50,44,288.15,0.7327769396406212,2-aminopyridine,ethyl acetate
3567.0,CC1=C(/C=C/C(C)=C/C=C/C(C)=C/C=C/C=C(C)/C=C/C=C(C)/C=C/C2=C(C)C(=O)CCC2(C)C)C(C)(C)CCC1=O,CCOC(C)=O,mol_3567_solute_opt,mol_3567_solvent_opt,50,28,293.15,-3.557549629510989,Canthaxanthin,ethyl acetate
3568.0,O=P(c1ccccc1)(c1ccccc1)c1ccccc1,CCOC(C)=O,mol_3568_solute_opt,mol_3568_solvent_opt,50,34,294.54,-0.6200927921261793,Triphenylphosphine oxide,ethyl acetate
3569.0,O=C1OC(=O)c2c(Cl)cccc21,CCOC(C)=O,mol_3569_solute_opt,mol_3569_solvent_opt,50,49,283.15,0.0925598023223304,3-chlorophthalic anhydride,ethyl acetate
3570.0,O=C1OC(=O)c2cc(Cl)ccc21,CCOC(C)=O,mol_3570_solute_opt,mol_3570_solvent_opt,50,48,283.15,0.3500498544328062,4-chlorophthalic anhydride,ethyl acetate
3571.0,Cn1[nH]c(=O)c(=O)[nH]c1=S,CCOC(C)=O,mol_3571_solute_opt,mol_3571_solvent_opt,50,47,293.07,-1.2291344807915678,Thiotriazinone,ethyl acetate
3572.0,CP(=O)(c1ccccc1)c1ccccc1,CCOC(C)=O,mol_3572_solute_opt,mol_3572_solvent_opt,50,34,293.25,-0.3540122738358996,Methyldiphenylphosphine oxide,ethyl acetate
3573.0,CC1(C)[C@H](C(=O)O)N2C(=O)[C@@H](NC(=O)Cc3ccccc3)[C@H]2S1=O,CCOC(C)=O,mol_3573_solute_opt,mol_3573_solvent_opt,50,38,273.15,-1.6541541540665443,Penicillin sulfoxide,ethyl acetate
3574.0,CCCCCCCCCCCCCCCc1cccc(O)c1,CCOC(C)=O,mol_3574_solute_opt,mol_3574_solvent_opt,50,33,290.83,0.500679186229533,3-pentadecylphenol,ethyl acetate
3575.0,C[C@H](CS)C(=O)N1CCC[C@H]1C(=O)O,CCOC(C)=O,mol_3575_solute_opt,mol_3575_solvent_opt,50,38,278.15,-1.1903720504195974,Captopril,ethyl acetate
3576.0,COC(=O)/C=C/c1cc(OC)c(O)c(OC)c1,CCOC(C)=O,mol_3576_solute_opt,mol_3576_solvent_opt,50,38,303.15,0.1253842260492576,Methyl sinapate,ethyl acetate
3577.0,COC(=O)/C=C/c1ccc(O)c(OC)c1,CCOC(C)=O,mol_3577_solute_opt,mol_3577_solvent_opt,50,36,303.15,0.4467886035840283,Methyl ferulate,ethyl acetate
3578.0,COC(=O)/C=C/c1ccc(O)cc1,CCOC(C)=O,mol_3578_solute_opt,mol_3578_solvent_opt,50,41,303.15,-0.0250828530568897,Methyl p-coumarate,ethyl acetate
3579.0,COc1cnc(Cl)nc1Cl,CCOC(C)=O,mol_3579_solute_opt,mol_3579_solvent_opt,50,40,295.6,0.6155693152814328,"2,4-dichloro-5-methoxypyrimidine",ethyl acetate
3580.0,CC[C@H](CC[C@@H](C)[C@H]1CC[C@H]2[C@@H]3CC=C4C[C@@H](O)CC[C@]4(C)[C@H]3CC[C@]12C)C(C)C,CCOC(C)=O,mol_3580_solute_opt,mol_3580_solvent_opt,50,30,278.15,-1.3291854551554236,β-Sitosterol,ethyl acetate
3581.0,c1ccc2cc3ccccc3cc2c1,CCCO,mol_3581_solute_opt,mol_3581_solvent_opt,50,42,298.15,-2.1041347116351328,Anthracene,n-propanol
3582.0,O=C(C(=O)c1ccccc1)c1ccccc1,CCCO,mol_3582_solute_opt,mol_3582_solvent_opt,50,44,298.15,-0.7974545040271983,Benzil,n-propanol
3583.0,CCCCCCCCCCCCCCCCCCCCCC(=O)OCCO,CCCO,mol_3583_solute_opt,mol_3583_solvent_opt,50,24,296.55,-2.574135177646316,Ethylene glycol monobehenate,n-propanol
3584.0,O=[N+]([O-])c1cccc2ccccc12,CCCO,mol_3584_solute_opt,mol_3584_solvent_opt,50,41,298.15,-0.3925460849859705,1-nitronaphthalene,n-propanol
3585.0,CC(=O)NCC(=O)O,CCCO,mol_3585_solute_opt,mol_3585_solvent_opt,50,45,278.15,-1.678967826762253,N-acetylglycine,n-propanol
3586.0,COc1ccc2nc(SCc3ncc(C)c(OC)c3C)[nH]c2c1,CCCO,mol_3586_solute_opt,mol_3586_solvent_opt,50,31,280.35,-0.9839909176890688,Omeprazole sulfide,n-propanol
3587.0,O=C(O)[C@H](O)[C@@H](O)C(=O)O,CCCO,mol_3587_solute_opt,mol_3587_solvent_opt,50,33,281.15,-0.5376860513016231,L-tartaric acid,n-propanol
3588.0,COC1=C(OC)C(=O)C(C/C=C(\C)CC/C=C(\C)CC/C=C(\C)CC/C=C(\C)CC/C=C(\C)CC/C=C(\C)CC/C=C(\C)CC/C=C(\C)CC/C=C(\C)CCC=C(C)C)=C(C)C1=O,CCCO,mol_3588_solute_opt,mol_3588_solvent_opt,50,17,270.15,-3.52125295229804,Coenzyme Q10,n-propanol
3589.0,Cc1cc(C)nc(NS(=O)(=O)c2ccc(N)cc2)n1,CCCO,mol_3589_solute_opt,mol_3589_solvent_opt,50,39,293.15,-2.102006812386976,Sulfamethazine,n-propanol
3590.0,Cc1ccnc(NS(=O)(=O)c2ccc(N)cc2)n1,CCCO,mol_3590_solute_opt,mol_3590_solvent_opt,50,45,293.15,-2.623353723574755,Sulfamerazine,n-propanol
3591.0,Nc1ccc(S(=O)(=O)Nc2ncccn2)cc1,CCCO,mol_3591_solute_opt,mol_3591_solvent_opt,50,37,293.15,-3.285002460635322,Sulfadiazine,n-propanol
3592.0,Cc1cc(=O)c(C(=O)N[C@@H](C(=O)N[C@@H]2C(=O)N3C(C(=O)O)=C(CSc4nnnn4C)CS[C@H]23)c2ccc(O)cc2)c[nH]1,CCCO,mol_3592_solute_opt,mol_3592_solvent_opt,50,30,278.2,-2.4827210120352325,Cefpiramide,n-propanol
3593.0,CC(=O)CCc1ccc(O)cc1,CCCO,mol_3593_solute_opt,mol_3593_solvent_opt,50,39,283.15,0.1481848316754457,4-(4-hydroxyphenyl)-2-butanone (raspberry ketone),n-propanol
3594.0,Cc1cccc(C(=O)O)c1[N+](=O)[O-],CCCO,mol_3594_solute_opt,mol_3594_solvent_opt,50,41,283.15,-0.9669429698934164,3-methyl-2-nitrobenzoic acid,n-propanol
3595.0,C/C=C/C=C/C(=O)O,CCCO,mol_3595_solute_opt,mol_3595_solvent_opt,50,41,283.15,-0.5566451626383193,Sorbic acid,n-propanol
3596.0,CC[C@H](C)[C@H]1O[C@]2(CC[C@@H]1C)C[C@@H]1C[C@@H](C/C=C(\C)[C@@H](O[C@H]3C[C@H](OC)[C@@H](O[C@H]4C[C@H](OC)[C@@H](O)[C@H](C)O4)[C@H](C)O3)[C@@H](C)/C=C/C=C3\CO[C@@H]4[C@H](O)C(C)=C[C@@H](C(=O)O1)[C@]34O)O2,CCCO,mol_3596_solute_opt,mol_3596_solvent_opt,50,21,293.2,0.116104531436004,Ivermectin,n-propanol
3597.0,COc1cc(NS(=O)(=O)c2ccc(N)cc2)ncn1,CCCO,mol_3597_solute_opt,mol_3597_solvent_opt,50,35,300.25,-2.509440925788256,Sulfamonomethoxine,n-propanol
3598.0,O=C1c2ccccc2-c2ccccc21,CCCO,mol_3598_solute_opt,mol_3598_solvent_opt,50,40,278.15,-0.705566595705975,9-fluorenone,n-propanol
3599.0,CCC(C)(C)C(=O)O[C@H]1C[C@@H](C)C=C2C=C[C@H](C)[C@H](CC[C@@H]3C[C@@H](O)CC(=O)O3)[C@H]21,CCCO,mol_3599_solute_opt,mol_3599_solvent_opt,50,25,279.1,-0.6433980974655464,Simvastatin,n-propanol
3600.0,C=C(CC(=O)O)C(=O)O,CCCO,mol_3600_solute_opt,mol_3600_solvent_opt,50,38,283.15,-0.0301073408965236,Itaconic acid,n-propanol
3601.0,c1cc2ccc3cccc4ccc(c1)c2c34,CCCO,mol_3601_solute_opt,mol_3601_solvent_opt,50,42,283.25,-1.440086032267973,Pyrene,n-propanol
3602.0,C[C@H]1COc2c(N3CCN(C)CC3)c(F)cc3c(=O)c(C(=O)O)cn1c23,CCCO,mol_3602_solute_opt,mol_3602_solvent_opt,50,27,288.15,-1.8334074376922704,Levofloxacin,n-propanol
3603.0,Cc1c(OCC(F)(F)F)ccnc1CS(=O)c1nc2ccccc2[nH]1,CCCO,mol_3603_solute_opt,mol_3603_solvent_opt,50,31,283.15,-1.6483949671703433,Lansoprazole,n-propanol
3604.0,O=C(O)CCCCCCC(=O)O,CCCO,mol_3604_solute_opt,mol_3604_solvent_opt,50,34,283.15,-0.7830904119740261,Suberic acid,n-propanol
3605.0,O=C(O)CC(O)(CC(=O)O)C(=O)O,CCCO,mol_3605_solute_opt,mol_3605_solvent_opt,50,32,293.7,0.7034802751488725,Citric acid,n-propanol
3606.0,COC(=O)C1CC(=O)C(C(=O)OC)CC1=O,CCCO,mol_3606_solute_opt,mol_3606_solvent_opt,50,41,278.15,-2.505330141379293,Dimethyl succinylsuccinate,n-propanol
3607.0,O=C(O)C[C@H](O)C(=O)O,CCCO,mol_3607_solute_opt,mol_3607_solvent_opt,50,38,278.15,0.1369821448650644,L-malic acid,n-propanol
3608.0,Cc1nc2n(c(=O)c1CCN1CCC(c3noc4cc(F)ccc34)CC1)CCCC2,CCCO,mol_3608_solute_opt,mol_3608_solvent_opt,50,29,278.15,-1.7235389870932607,Risperidone,n-propanol
3609.0,CCn1c2ccccc2c2ccccc21,CCCO,mol_3609_solute_opt,mol_3609_solvent_opt,50,32,279.15,-0.8997920922734868,N-ethylcarbazole,n-propanol
3610.0,CP(=O)(O)O,CCCO,mol_3610_solute_opt,mol_3610_solvent_opt,50,32,288.38,0.9578717964764648,Methylphosphonic acid,n-propanol
3611.0,O=c1ccc2ccccc2o1,CCCO,mol_3611_solute_opt,mol_3611_solvent_opt,50,40,278.15,-1.1479677778103643,Coumarin,n-propanol
3612.0,CCOc1ccccc1C(N)=O,CCCO,mol_3612_solute_opt,mol_3612_solvent_opt,50,29,288.15,-0.947954490483214,Ethenzamide,n-propanol
3613.0,CC(=O)NC[C@H]1CN(c2ccc(N3CCOCC3)c(F)c2)C(=O)O1,CCCO,mol_3613_solute_opt,mol_3613_solvent_opt,50,35,283.15,-2.046166600125624,Linezolid,n-propanol
3614.0,CCCCCOC(=O)Nc1nc(=O)n([C@@H]2O[C@H](C)[C@@H](O)[C@H]2O)cc1F,CCCO,mol_3614_solute_opt,mol_3614_solvent_opt,50,23,278.0,-1.4858377063562196,Capecitabine,n-propanol
3615.0,Cc1cc(C)c(C(=O)P(=O)(c2ccccc2)c2ccccc2)c(C)c1,CCCO,mol_3615_solute_opt,mol_3615_solvent_opt,50,34,273.15,0.0899526698232722,"(2,4,6-trimethylbenzoyl) diphenylphosphine oxide",n-propanol
3616.0,CC1(C)CCC2=C(O1)c1ccccc1C(=O)C2=O,CCCO,mol_3616_solute_opt,mol_3616_solvent_opt,50,36,298.15,-1.0476376263512133,β-lapachone,n-propanol
3617.0,Cn1cc([N+](=O)[O-])cn1,CCCO,mol_3617_solute_opt,mol_3617_solvent_opt,50,39,283.15,-1.5493299847124649,1-methyl-4-nitropyrazole,n-propanol
3618.0,Nc1nc(N)nc(NC2CC2)n1,CCCO,mol_3618_solute_opt,mol_3618_solvent_opt,50,33,283.15,-1.9609350458598256,Cyromazine,n-propanol
3619.0,CC(=O)NS(=O)(=O)c1ccc(N)cc1,CCCO,mol_3619_solute_opt,mol_3619_solvent_opt,50,46,293.15,-1.449945994231357,Sulfacetamide,n-propanol
3620.0,Oc1ccc(/C=C/c2cc(O)cc(O)c2)cc1,CCCO,mol_3620_solute_opt,mol_3620_solvent_opt,50,37,278.2,-1.0317074666526145,Trans-resveratrol,n-propanol
3621.0,C[C@@H]1O[C@@H](OC[C@H]2O[C@@H](Oc3cc(O)c4c(=O)cc(-c5ccccc5O)oc4c3)[C@H](O)[C@@H](O)[C@@H]2O)[C@H](O)[C@H](O)[C@H]1O,CCCO,mol_3621_solute_opt,mol_3621_solvent_opt,50,26,288.2,-3.626039856111172,Apigenin 7-O-rhamnosylglucoside,n-propanol
3622.0,O=c1cc(-c2ccc(O)cc2)oc2cc(O)cc(O)c12,CCCO,mol_3622_solute_opt,mol_3622_solvent_opt,50,40,288.2,-2.3361170589724054,Apigenin,n-propanol
3623.0,C[C@@H]1CC[C@@]2(OC1)O[C@H]1C[C@H]3[C@@H]4CC=C5C[C@@H](O)CC[C@]5(C)[C@H]4CC[C@]3(C)[C@H]1[C@@H]2C,CCCO,mol_3623_solute_opt,mol_3623_solvent_opt,50,23,290.15,-1.6600842497923596,Diosgenin,n-propanol
3624.0,Brc1sc(Br)c(Br)c1Br,CCCO,mol_3624_solute_opt,mol_3624_solvent_opt,50,45,281.25,-1.5276716174939964,"2,3,4,5-tetrabromothiophene",n-propanol
3625.0,O=C(O)c1ccccc1O,CCCO,mol_3625_solute_opt,mol_3625_solvent_opt,50,40,278.15,0.1867416766251349,Salicylic acid,n-propanol
3626.0,CC(C)(C)C(=O)C(Oc1ccc(Cl)cc1)n1ccnc1,CCCO,mol_3626_solute_opt,mol_3626_solvent_opt,50,36,278.15,0.0963535756913964,Climbazole,n-propanol
3627.0,CC(=O)S[C@@H]1CC2=CC(=O)CC[C@]2(C)[C@H]2CC[C@@]3(C)[C@@H](CC[C@@]34CCC(=O)O4)[C@H]12,CCCO,mol_3627_solute_opt,mol_3627_solvent_opt,50,27,278.4,-1.508340677895449,Spironolactone,n-propanol
3628.0,O=C(O)C1=C[C@@H](O)[C@@H](O)[C@H](O)C1,CCCO,mol_3628_solute_opt,mol_3628_solvent_opt,50,36,308.15,-1.9355175563111844,(-)-shikimic acid,n-propanol
3629.0,CC1=C(O)C(=O)C(C)O1,CCCO,mol_3629_solute_opt,mol_3629_solvent_opt,50,40,283.15,0.2244318058360754,"4-hydroxy-2,5-dimethyl-3(2H)-furanone (DMHF)",n-propanol
3630.0,Cc1ccc(C(C)C)c(O)c1,CCCO,mol_3630_solute_opt,mol_3630_solvent_opt,50,36,279.15,0.8495565504442565,Thymol,n-propanol
3631.0,O=C1NC(=O)c2ccccc21,CCCO,mol_3631_solute_opt,mol_3631_solvent_opt,50,41,283.15,-1.6758187847115769,Phthalimide,n-propanol
3632.0,NC(N)=S,CCCO,mol_3632_solute_opt,mol_3632_solvent_opt,50,42,283.15,-0.5938219536760149,Thiourea,n-propanol
3633.0,CCOC(=O)Cc1c(C(=O)OCC)sc(N)c1C#N,CCCO,mol_3633_solute_opt,mol_3633_solvent_opt,50,34,273.15,-1.5267794703961126,Ethyl 5-amino-4-cyano-3-(2-ethoxy-2-oxoethyl)-2-thiophenecarboxylate,n-propanol
3634.0,O=C1c2cccc(Cl)c2C(=O)N1c1ccccc1,CCCO,mol_3634_solute_opt,mol_3634_solvent_opt,50,36,288.15,-2.6623890954923617,3-chloro-N-phenylphthalimide,n-propanol
3635.0,Nc1ccc(N2CCOCC2=O)cc1,CCCO,mol_3635_solute_opt,mol_3635_solvent_opt,50,36,278.15,-2.359162139578042,4-(4-aminophenyl)-3-morpholinone,n-propanol
3636.0,O=C1c2cccc(O)c2C(=O)c2c(O)cc(CO)cc21,CCCO,mol_3636_solute_opt,mol_3636_solvent_opt,50,35,278.15,-3.6070785844,Aloe-emodin,n-propanol
3637.0,N=C(Nc1ccccc1)Nc1ccccc1,CCCO,mol_3637_solute_opt,mol_3637_solvent_opt,50,31,273.15,-0.655240672424251,"1,3-diphenylguanidine",n-propanol
3638.0,O=[N+]([O-])c1ccc(O)c2ncccc12,CCCO,mol_3638_solute_opt,mol_3638_solvent_opt,50,41,278.15,-2.1174094409928306,5-nitro-8-hydroxyquinoline,n-propanol