pair_id,SMILES_Solute,SMILES_Solvent,Solute_name,Solvent_name,Total_conformers,Filtered_conformers,Temperature_K,LogS,Compound_Name,Solvent
2494.0,CC1(C)[C@@H](O)CC[C@]2(C)[C@H]3C(=O)C=C4[C@@H]5C[C@@](C)(C(=O)O)CC[C@]5(C)CC[C@@]4(C)[C@]3(C)CC[C@@H]12,O,mol_2494_solute_opt,mol_2494_solvent_opt,50,4,278.15,-5.351256340628328,18β-glycyrrhetinic acid,water
2495.0,Nc1cncc(Cl)n1,O,mol_2495_solute_opt,mol_2495_solvent_opt,50,30,278.15,-2.697042994978573,2-amino-6-chloropyrazine,water
2496.0,CCCSc1ccc2nc(NC(=O)OC)[nH]c2c1,O,mol_2496_solute_opt,mol_2496_solvent_opt,50,11,278.15,-5.053431450504233,Albendazole,water
2497.0,O=S(=O)(c1ccccc1)c1ccc(Cl)cc1,O,mol_2497_solute_opt,mol_2497_solvent_opt,50,12,278.15,-3.796706184131133,Sulfenone,water
2498.0,CCOc1cccc(C=O)c1O,O,mol_2498_solute_opt,mol_2498_solvent_opt,50,20,278.15,-2.5362932508776472,3-ethoxysalicylaldehyde,water
2499.0,COc1ccc2cccc(CCNC(C)=O)c2c1,O,mol_2499_solute_opt,mol_2499_solvent_opt,50,10,278.15,-3.000366973014144,Agomelatine,water
2500.0,COC(=O)Nc1nc2ccc(Sc3ccccc3)cc2[nH]1,O,mol_2500_solute_opt,mol_2500_solvent_opt,50,9,283.15,-3.714558373622522,Fenbendazole,water
2501.0,Nc1nc(N)c2nc(-c3ccccc3)c(N)nc2n1,O,mol_2501_solute_opt,mol_2501_solvent_opt,50,11,283.15,-4.225974638388824,Triamterene,water
2502.0,CCC(C)n1ncn(-c2ccc(N3CCN(c4ccc(OCC5COC(Cn6cncn6)(c6ccc(Cl)cc6Cl)O5)cc4)CC3)cc2)c1=O,O,mol_2502_solute_opt,mol_2502_solvent_opt,50,10,283.15,-6.635628517565554,Itraconazole,water
2503.0,O=C(O)/C=C/c1ccc(Cl)cc1,O,mol_2503_solute_opt,mol_2503_solvent_opt,50,20,283.15,-3.5317323009507584,trans-4-chlorocinnamic acid,water
2504.0,CC1COC(Cn2cncn2)(c2ccc(Oc3ccc(Cl)cc3)cc2Cl)O1,O,mol_2504_solute_opt,mol_2504_solvent_opt,50,8,278.15,-4.138707080445876,Difenoconazole,water
2505.0,OCC1(O)OC[C@@H](O)[C@H](O)[C@@H]1O,O,mol_2505_solute_opt,mol_2505_solvent_opt,50,18,283.15,0.7781382062589063,D-tagatose,water
2506.0,CC(C)(C)CC(C)(C)c1ccc(O)cc1,O,mol_2506_solute_opt,mol_2506_solvent_opt,50,9,298.1,-4.136784146883684,4-tert-octylphenol,water
2507.0,CCCCCCCCCc1ccc(O)cc1,O,mol_2507_solute_opt,mol_2507_solvent_opt,50,8,298.1,-5.655298642658885,4-n-nonylphenol,water
2508.0,CCCCCCCCc1ccc(O)cc1,O,mol_2508_solute_opt,mol_2508_solvent_opt,50,7,298.1,-4.794960527514253,4-n-octylphenol,water
2509.0,NC(N)=O,O,mol_2509_solute_opt,mol_2509_solvent_opt,50,24,293.15,1.2715472712448015,Urea,water
2510.0,Cc1ncc([N+](=O)[O-])n1CCO,O,mol_2510_solute_opt,mol_2510_solvent_opt,50,14,293.15,-1.315516995241936,Metronidazole,water
2511.0,c1ccc(-c2cnc(-c3ccc(-c4ncc(-c5ccccc5)o4)cc3)o2)cc1,O,mol_2511_solute_opt,mol_2511_solvent_opt,50,12,298.15,-7.393594468191274,"1,4-bis(5-phenyl-oxazolyl-2)benzene (POPOP)",water
2512.0,c1ccc(-c2cnc(-c3ccccc3)o2)cc1,O,mol_2512_solute_opt,mol_2512_solvent_opt,50,9,298.15,-5.107698154737859,"2,5-diphenyl-1,3-oxazole (PPO)",water
2513.0,CC(C)=CCOc1c2occc2cc2ccc(=O)oc12,O,mol_2513_solute_opt,mol_2513_solvent_opt,50,11,288.2,-4.386261516795057,Imperatorin,water
2514.0,CC(=O)OCC(=O)[C@@]1(O)CC[C@H]2[C@@H]3CCC4=CC(=O)C=C[C@]4(C)[C@H]3C(=O)C[C@@]21C,O,mol_2514_solute_opt,mol_2514_solvent_opt,50,8,354.75,-3.3654155110331896,Prednisone acetate,water
2515.0,Nc1ccc(S(=O)(=O)Nc2ccccn2)cc1,O,mol_2515_solute_opt,mol_2515_solvent_opt,50,16,293.15,-2.891288851483715,Sulfapyridine,water
2516.0,CN1C(C(=O)Nc2ccccn2)=C(O)c2ccccc2S1(=O)=O,O,mol_2516_solute_opt,mol_2516_solvent_opt,50,12,298.15,-4.6537727818564605,Piroxicam,water
2517.0,O=c1c(-c2ccc(O)cc2)coc2cc(O)ccc12,O,mol_2517_solute_opt,mol_2517_solvent_opt,50,15,288.2,-5.504214429426518,Daidzein,water
2518.0,Nc1ccc(S(=O)(=O)Nc2ncccn2)cc1,O,mol_2518_solute_opt,mol_2518_solvent_opt,50,16,293.15,-4.676628588525316,Sulfadiazine,water
2519.0,Nc1ccc(Cl)nn1,O,mol_2519_solute_opt,mol_2519_solvent_opt,50,30,293.65,-2.458473292583013,6-chloropyridazin-3-amine,water
2520.0,COc1ccccc1OCC(O)COC(N)=O,O,mol_2520_solute_opt,mol_2520_solvent_opt,50,12,298.15,-1.3903106657344904,Methocarbamol,water
2521.0,N#CNC(=N)N,O,mol_2521_solute_opt,mol_2521_solvent_opt,50,25,278.15,-0.7723120666531681,2-cyanoguanidine,water
2522.0,COc1cc(C2Oc3cc(C4Oc5cc(O)cc(O)c5C(=O)C4O)ccc3OC2CO)ccc1O,O,mol_2522_solute_opt,mol_2522_solvent_opt,50,8,298.15,-3.092558132098605,Silymarin,water
2523.0,Cc1cnc(NC(=O)C2=C(O)c3ccccc3S(=O)(=O)N2C)s1,O,mol_2523_solute_opt,mol_2523_solvent_opt,50,12,298.15,-3.6305751241841793,Meloxicam,water
2524.0,CN1CC(=O)N2[C@H](c3ccc4c(c3)OCO4)c3[nH]c4ccccc4c3C[C@@H]2C1=O,O,mol_2524_solute_opt,mol_2524_solvent_opt,50,12,298.15,-4.498005186945687,Tadalafil,water
2525.0,C[C@@H]1O[C@@H](O[C@H]2[C@H](Oc3cc(O)c4c(c3)O[C@H](c3ccc(O)cc3)CC4=O)O[C@H](CO)[C@@H](O)[C@@H]2O)[C@H](O)[C@H](O)[C@H]1O,O,mol_2525_solute_opt,mol_2525_solvent_opt,50,8,283.15,-4.462672704476782,Naringin,water
2526.0,COc1c(NS(=O)(=O)c2ccc(C)cc2)cc(-c2ccc3ncnc(N4CCOCC4)c3c2)cc1C(N)=O,O,mol_2526_solute_opt,mol_2526_solvent_opt,50,8,288.15,-4.336319411952326,2-methoxy-3-(4-methylphenylsulfonamido)-5-(4-morpholinoquinazolin-6-yl)benzamide,water
2527.0,COc1c(NS(=O)(=O)c2ccc(F)cc2)cc(-c2ccc3nccc(N4CCOCC4)c3c2)cc1C(N)=O,O,mol_2527_solute_opt,mol_2527_solvent_opt,50,9,288.15,-4.706654001283431,3-(4-fluorophenylsulfonamido)-2-methoxy-5-(4-morpholinoquinolin-6-yl)benzamide,water
2528.0,COc1c(NS(=O)(=O)c2ccc(F)cc2)cc(-c2ccc3ncnc(N4CCOCC4)c3c2)cc1C(N)=O,O,mol_2528_solute_opt,mol_2528_solvent_opt,50,9,288.15,-4.539437503674282,3-(4-fluorophenylsulfonamido)-2-methoxy-5-(4-morpholinoquinazolin-6-yl)benzamide,water
2529.0,O=C1c2c(O)cc(O)cc2O[C@H](c2cc(O)c(O)c(O)c2)[C@H]1O,O,mol_2529_solute_opt,mol_2529_solvent_opt,50,15,288.15,-2.410896865795109,Dihydromyricetin,water
2530.0,CN1C(C(=O)Nc2ccccn2)=C(O)c2sccc2S1(=O)=O,O,mol_2530_solute_opt,mol_2530_solvent_opt,50,14,298.15,-3.64096548333245,Tenoxicam,water
2531.0,O=C(/C=C/c1ccc(O)c(O)c1)O[C@H](Cc1ccc(O)c(O)c1)C(=O)O,O,mol_2531_solute_opt,mol_2531_solvent_opt,50,9,293.15,-0.1199148658830902,Rosmarinic acid,water
2532.0,CN(Cc1ccccc1)CN1C(=O)C(=NNC(=O)c2ccccc2OCc2ccccc2)c2ccccc21,O,mol_2532_solute_opt,mol_2532_solvent_opt,50,8,298.15,-4.2275330862482114,N′-(1-(n-(methyl) benzylaminomethyl)-2-oxoindolin-3-ylidene)-2-(benzyloxy) benzohydrazide,water
2533.0,COc1cc(/C=C/C(=O)O)cc(OC)c1O,O,mol_2533_solute_opt,mol_2533_solvent_opt,50,11,298.15,-2.4630999299810297,Sinapic acid,water
2534.0,O=C(O)/C=C\C=C/C(=O)O,O,mol_2534_solute_opt,mol_2534_solvent_opt,50,18,298.15,-1.955800465381356,"cis,cis-muconic acid",water
2535.0,CCOc1ccc(C2NC(=O)NC=C2C(=O)c2cc(OC)c(OC)c(OC)c2)cc1,O,mol_2535_solute_opt,mol_2535_solvent_opt,50,7,298.15,-3.3609391783586786,"4-(4-ethoxyphenyl)-5-(3,4,5 trimethoxybenzoyl)-3,4-dihydropyrimidine-2(1H)-one (DHP-5)",water
2536.0,COc1ccc(-c2coc3cc(O)ccc3c2=O)cc1,O,mol_2536_solute_opt,mol_2536_solvent_opt,50,14,298.15,-7.362047671542592,Formononetin,water
2537.0,COc1ccc(C2CC(=O)c3c(O)cc(O)cc3O2)cc1O,O,mol_2537_solute_opt,mol_2537_solvent_opt,50,14,298.15,-5.515411163621433,Hesperetin,water
2538.0,O=C1c2c(O)cc(O)cc2OC(c2ccc(O)c(O)c2)C1O,O,mol_2538_solute_opt,mol_2538_solvent_opt,50,15,298.15,-2.85036607354432,Taxifolin,water
2539.0,O=c1c(O)c(-c2cc(O)c(O)c(O)c2)oc2cc(O)cc(O)c12,O,mol_2539_solute_opt,mol_2539_solvent_opt,50,13,298.15,-6.11399626507776,Myricetin,water
2540.0,O=c1c(O)c(-c2ccc(O)c(O)c2)oc2cc(O)cc(O)c12,O,mol_2540_solute_opt,mol_2540_solvent_opt,50,12,298.15,-6.533461654296162,Quercetin,water
2541.0,O=c1c(O)c(-c2ccc(O)cc2)oc2cc(O)cc(O)c12,O,mol_2541_solute_opt,mol_2541_solvent_opt,50,19,298.15,-7.595104642892163,Kampferol,water
2542.0,O=c1c(O)c(-c2ccc(O)cc2O)oc2cc(O)cc(O)c12,O,mol_2542_solute_opt,mol_2542_solvent_opt,50,14,298.15,-6.465367020914021,Morin hydrate,water
2543.0,O=c1cc(-c2ccc(O)c(O)c2)oc2cc(O)cc(O)c12,O,mol_2543_solute_opt,mol_2543_solvent_opt,50,16,298.15,-5.599880588392483,Luteolin,water
2544.0,O=c1cc(-c2ccccc2)oc2cc(O)cc(O)c12,O,mol_2544_solute_opt,mol_2544_solvent_opt,50,14,298.15,-7.48240036264181,Chrysin,water
2545.0,C=C1CC[C@H](O)C/C1=C/C=C1\CCC[C@]2(C)[C@@H]([C@H](C)CCCC(C)C)CC[C@@H]12,O,mol_2545_solute_opt,mol_2545_solvent_opt,50,5,273.2,-4.98084114533218,Vitamin D3,water
2546.0,O=C1CCC(c2ccccc2)=NN1,O,mol_2546_solute_opt,mol_2546_solvent_opt,50,18,293.15,-4.384255753876258,"6-phenyl-4,5-dihydropyridazin-3(2H)-one",water
2547.0,NCCC(=O)O,O,mol_2547_solute_opt,mol_2547_solvent_opt,50,24,288.15,0.857729262168616,Β-alanine,water
2548.0,COc1cc(/C=C/C(=O)O)ccc1O,O,mol_2548_solute_opt,mol_2548_solvent_opt,50,17,298.2,-2.568047434964853,Ferulic acid,water
2549.0,C[C@]12C=CC(=O)C=C1CC[C@@H]1[C@@H]2[C@@H](O)C[C@@]2(C)[C@H]1CC[C@]2(O)C(=O)CO,O,mol_2549_solute_opt,mol_2549_solvent_opt,50,10,293.2,-3.235240663983806,Prednisolone,water
2550.0,C[C@]12CCC(=O)C=C1CC[C@@H]1[C@@H]2[C@@H](O)C[C@@]2(C)[C@H]1CC[C@]2(O)C(=O)CO,O,mol_2550_solute_opt,mol_2550_solvent_opt,50,8,293.2,-3.195731688400873,Hydrocortisone,water
2551.0,O=C(O)c1ccccc1Nc1cccc(C(F)(F)F)c1,O,mol_2551_solute_opt,mol_2551_solvent_opt,50,11,298.2,-4.49170872365513,Flufenamic acid,water
2552.0,NCCS(=O)(=O)O,O,mol_2552_solute_opt,mol_2552_solvent_opt,50,12,278.15,-0.4285494696151148,Taurine,water
2553.0,C=CC(C)(O)CCC=C(C)C,O,mol_2553_solute_opt,mol_2553_solvent_opt,50,8,298.15,-1.999640374947989,Linalool,water
2554.0,C=CCc1ccc(O)c(OC)c1,O,mol_2554_solute_opt,mol_2554_solvent_opt,50,15,298.15,-1.89888345119654,Eugenol,water
2555.0,CC(C)=CCC/C(C)=C/CO,O,mol_2555_solute_opt,mol_2555_solvent_opt,50,12,298.15,-2.245302280697724,Geraniol,water
2556.0,CC(C)=CCCC(C)CCO,O,mol_2556_solute_opt,mol_2556_solvent_opt,50,11,298.15,-1.9189643433861443,Citronellol,water
2557.0,Cc1ccc(C(C)C)c(O)c1,O,mol_2557_solute_opt,mol_2557_solvent_opt,50,13,298.15,-2.18498407154998,Thymol,water
2558.0,Cc1ccc(C(C)C)cc1,O,mol_2558_solute_opt,mol_2558_solvent_opt,50,9,298.15,-3.575674006634662,p-cymene,water
2559.0,Cc1ccc(C(C)C)cc1O,O,mol_2559_solute_opt,mol_2559_solvent_opt,50,12,298.15,-2.098492293624924,Carvacrol,water
2560.0,Cc1ccc(C)cc1,O,mol_2560_solute_opt,mol_2560_solvent_opt,50,11,298.15,-2.838604658644533,p-xylene,water
2561.0,CCCCCCCCCCCCCCCCOc1nc2ccc(C)cc2c(=O)o1,O,mol_2561_solute_opt,mol_2561_solvent_opt,50,3,278.15,-0.647615774902422,Cetilistat,water
2562.0,CC(=O)Nc1cccc(N)c1,O,mol_2562_solute_opt,mol_2562_solvent_opt,50,24,278.15,0.15328809748502,"N-acetyl-1,3-phenylenediamine",water
2563.0,Cc1c(N)c(=O)n(-c2ccccc2)n1C,O,mol_2563_solute_opt,mol_2563_solvent_opt,50,15,299.05,0.9174022194097282,4-aminoantipyrine,water
2564.0,COc1c(C)c2c(c(O)c1C/C=C(\C)CCC(=O)OCCN1CCOCC1)C(=O)OC2,O,mol_2564_solute_opt,mol_2564_solvent_opt,50,6,298.2,-4.014338722905597,Mycophenolate mofetil,water
2565.0,O=C(/C=C/C=C/c1ccc2c(c1)OCO2)N1CCCCC1,O,mol_2565_solute_opt,mol_2565_solvent_opt,50,7,298.2,-3.2279891069468727,Piperine,water
2566.0,Cc1ccc(-c2cc(C(F)(F)F)nn2-c2ccc(S(N)(=O)=O)cc2)cc1,O,mol_2566_solute_opt,mol_2566_solvent_opt,50,9,293.2,-5.389556676868171,Celecoxib,water
2567.0,O=c1[nH]c2ccccc2n1CCCN1CCC(n2c(=O)[nH]c3cc(Cl)ccc32)CC1,O,mol_2567_solute_opt,mol_2567_solvent_opt,50,7,278.15,-5.312647664034812,Domperidone,water
2568.0,Cc1cnc(C(=O)O)c[n+]1[O-],O,mol_2568_solute_opt,mol_2568_solvent_opt,50,23,283.15,-0.9591186192159812,Acipimox,water
2569.0,N[C@@H](Cc1ccccc1)C(=O)O,O,mol_2569_solute_opt,mol_2569_solvent_opt,50,14,288.15,-0.9137951208231192,L-phenylalanine,water
2570.0,Cc1cc(=O)n(-c2ccccc2)n1C,O,mol_2570_solute_opt,mol_2570_solvent_opt,50,17,288.15,1.085433345232419,Antipyrine,water
2571.0,COc1ccc2cc([C@H](C)C(=O)O)ccc2c1,O,mol_2571_solute_opt,mol_2571_solvent_opt,50,8,293.2,-3.6169461403730896,(S)-Naproxen,water
2572.0,CC1=CC(=O)C(C(C)C)=CC1=O,O,mol_2572_solute_opt,mol_2572_solvent_opt,50,20,298.2,-2.3398361044164853,Thymoquinone,water
2573.0,Cc1nc2cc(N)ccc2s1,O,mol_2573_solute_opt,mol_2573_solvent_opt,50,25,288.5,-1.9744336329474013,"2-methyl-1,3-benzothiazol-5-amine",water
2574.0,N=c1nc(N2CCCCC2)cc(N)n1O,O,mol_2574_solute_opt,mol_2574_solvent_opt,50,18,293.2,-1.870722703187925,Minoxidil,water
2575.0,Oc1ccc(/C=C/c2cc(O)cc(O)c2)cc1,O,mol_2575_solute_opt,mol_2575_solvent_opt,50,21,288.15,-4.145435036947678,Trans-resveratrol,water
2576.0,C=CC(=O)Nc1cc(Nc2nccc(-c3cn(C)c4ccccc34)n2)c(OC)cc1N(C)CCN(C)C,O,mol_2576_solute_opt,mol_2576_solvent_opt,50,3,298.2,-2.9901977686826515,Osimertinib,water
2577.0,O=C1NC(=O)C(c2ccccc2)(c2ccccc2)N1,O,mol_2577_solute_opt,mol_2577_solvent_opt,50,15,293.15,-4.269640194641964,Phenytoin,water
2578.0,NC(=O)c1ccccc1,O,mol_2578_solute_opt,mol_2578_solvent_opt,50,29,283.15,-1.259743129066785,Benzamide,water
2579.0,CCOC(=O)c1ccc(O)cc1,O,mol_2579_solute_opt,mol_2579_solvent_opt,50,18,278.15,-2.837334625504248,Ethylparaben,water
2580.0,CC(=O)NS(=O)(=O)c1ccc(N)cc1,O,mol_2580_solute_opt,mol_2580_solvent_opt,50,15,278.15,-1.6688923207843127,Sulfacetamide,water
2581.0,O=C(O)[C@@H]1C[C@@H](O)CN1,O,mol_2581_solute_opt,mol_2581_solvent_opt,50,20,293.15,0.4486566450513978,L-hydroxyproline,water
2582.0,C[C@]12CC[C@@H]3c4ccc(O)cc4CC[C@H]3[C@@H]1CC[C@@H]2O,O,mol_2582_solute_opt,mol_2582_solvent_opt,50,9,273.15,-1.8460225547029188,Estradiol,water
2583.0,C=CC1=C(C(=O)O)N2C(=O)[C@@H](NC(=O)/C(=N\OCC(=O)O)c3csc(N)n3)[C@H]2SC1,O,mol_2583_solute_opt,mol_2583_solvent_opt,50,11,293.15,-3.11652727046762,Cefixime,water
2584.0,Cn1nc([N+](=O)[O-])c([N+](=O)[O-])c1[N+](=O)[O-],O,mol_2584_solute_opt,mol_2584_solvent_opt,50,18,283.15,-3.3533230489934773,"1-methyl-3,4,5-trinitropyrazole",water
2585.0,O=[N+]([O-])c1cn[nH]c1[N+](=O)[O-],O,mol_2585_solute_opt,mol_2585_solvent_opt,50,23,283.15,-0.9538651199737094,"3,4-dinitro-1H-pyrazole",water
2586.0,O=c1cc[nH]c(=O)[nH]1,O,mol_2586_solute_opt,mol_2586_solvent_opt,50,34,283.15,-2.035584387441897,Uracil,water
2587.0,Nc1cccc(C(=O)O)c1O,O,mol_2587_solute_opt,mol_2587_solvent_opt,50,20,293.2,-2.203307001636908,3-aminoSalicylic acid,water
2588.0,Nc1ccc(S(N)(=O)=O)cc1,O,mol_2588_solute_opt,mol_2588_solvent_opt,50,22,293.15,-1.416005619903833,Sulfanilamide,water
2589.0,O=C1CC[C@@H](C(=O)O)N1,O,mol_2589_solute_opt,mol_2589_solvent_opt,50,17,294.15,0.7721452403811945,L-pyroglutamic acid,water
2590.0,NS(=O)(=O)Cc1noc2ccccc12,O,mol_2590_solute_opt,mol_2590_solvent_opt,50,16,278.15,-3.00448820877348,Zonisamide,water
2591.0,O=C(Nc1ccc(Cl)cc1)Nc1ccc(Cl)c(Cl)c1,O,mol_2591_solute_opt,mol_2591_solvent_opt,50,18,288.15,-6.963769235279477,Triclocarban,water
2592.0,O=c1ccn([C@@H]2O[C@H](CO)[C@@H](O)[C@H]2O)c(=O)[nH]1,O,mol_2592_solute_opt,mol_2592_solvent_opt,50,16,278.15,0.0097195883650489,Uridine,water
2593.0,COc1cc(/C=C/c2ccc(O)cc2)cc(OC)c1,O,mol_2593_solute_opt,mol_2593_solvent_opt,50,15,298.2,-4.153573259097601,Pterostilbene,water
2594.0,OC(Cn1cncn1)(Cn1cncn1)c1ccc(F)cc1F,O,mol_2594_solute_opt,mol_2594_solvent_opt,50,10,293.15,-2.3665169263564003,Fluconazole,water
2595.0,O=c1[nH]cc(F)c(=O)[nH]1,O,mol_2595_solute_opt,mol_2595_solvent_opt,50,31,293.15,-1.0654069733208589,5-fluorouracil,water
2596.0,Nc1nc(NC2CC2)c2ncn([C@H]3C=C[C@@H](CO)C3)c2n1,O,mol_2596_solute_opt,mol_2596_solvent_opt,50,10,278.15,-1.877509251123982,Abacavir,water
2597.0,C#C[C@]1(O)CC[C@H]2[C@@H]3CCC4=CC(=O)CC[C@@H]4[C@H]3C(=C)C[C@@]21CC,O,mol_2597_solute_opt,mol_2597_solvent_opt,50,10,278.15,-3.0862603855996618,Etonogestrel,water
2598.0,O=C(O)C(O)c1ccccc1,O,mol_2598_solute_opt,mol_2598_solvent_opt,50,17,293.15,0.007239793873572,"(R,S)-mandelic acid",water
2599.0,O=[N+]([O-])N=C1NCCN1Cc1ccc(Cl)nc1,O,mol_2599_solute_opt,mol_2599_solvent_opt,50,18,283.15,-3.4237639473762846,Imidacloprid,water
2600.0,NC(=O)N1c2ccccc2CC(=O)c2ccccc21,O,mol_2600_solute_opt,mol_2600_solvent_opt,50,12,288.15,-3.5220236670663123,Oxcarbazepine,water
2601.0,O=[N+]([O-])c1cc[nH]n1,O,mol_2601_solute_opt,mol_2601_solvent_opt,50,28,283.15,-1.750475599555582,3-nitro-1H-pyrazole,water
2602.0,CS(=O)(=O)c1cccc(C[C@H](NC(=O)c2c(Cl)cc3c(c2Cl)CCN(C(=O)c2ccc4ccoc4c2)C3)C(=O)O)c1,O,mol_2602_solute_opt,mol_2602_solvent_opt,50,9,288.15,-4.082838391975637,Lifitegrast,water
2603.0,O=C(O)c1cc(=O)[nH]c(=O)[nH]1,O,mol_2603_solute_opt,mol_2603_solvent_opt,50,25,278.15,-2.595711247707284,Orotic acid,water
2604.0,COc1cc(C=O)ccc1O,O,mol_2604_solute_opt,mol_2604_solvent_opt,50,18,293.15,-1.1914502869286472,Vanillin,water
2605.0,CC(=O)Nc1ccc(CC(=O)O)cc1,O,mol_2605_solute_opt,mol_2605_solvent_opt,50,16,278.15,-2.043122495241112,Actarit,water
2606.0,COc1cccc(C(=O)O)c1OC,O,mol_2606_solute_opt,mol_2606_solvent_opt,50,17,278.15,-2.5752003170832585,"2,3-dimethoxybenzoic acid",water
2607.0,C=C1CCN([C@H](C)[C@](O)(Cn2cncn2)c2ccc(F)cc2F)CC1,O,mol_2607_solute_opt,mol_2607_solvent_opt,50,7,288.15,-4.222601082961927,Efinaconazole,water
2608.0,O=C(O)CCC(=O)c1ccc(-c2ccccc2)cc1,O,mol_2608_solute_opt,mol_2608_solvent_opt,50,7,278.15,-3.2130669927537365,Fenbufen,water
2609.0,COc1c2occc2c(OC)c2c(=O)cc(C)oc12,O,mol_2609_solute_opt,mol_2609_solvent_opt,50,11,298.15,-3.133059911506659,Khellin,water
2610.0,CC(=O)c1cccc(O)c1,O,mol_2610_solute_opt,mol_2610_solvent_opt,50,19,289.15,-1.3924505043707776,m-hydroxyacetophenone (m-HAP),water
2611.0,NC(=O)c1cccnc1Cl,O,mol_2611_solute_opt,mol_2611_solvent_opt,50,22,278.15,-1.3467030486339664,2-chloronicotinamide,water
2612.0,CC(=O)c1c(C)c2cnc(Nc3ccc(N4CCNCC4)cn3)nc2n(C2CCCC2)c1=O,O,mol_2612_solute_opt,mol_2612_solvent_opt,50,4,293.15,-3.2832804141870446,Palbociclib,water
2613.0,O=C(Nc1ccc([N+](=O)[O-])cc1Cl)c1cc(Cl)ccc1O,O,mol_2613_solute_opt,mol_2613_solvent_opt,50,14,298.15,-4.742369433954161,Niclosamide,water
2614.0,CN1CCC(N(Cc2cccs2)c2ccccc2)CC1,O,mol_2614_solute_opt,mol_2614_solvent_opt,50,7,278.15,-2.836506587366725,Thenalidine,water
2615.0,N[C@@H](Cc1c[nH]c2ccccc12)C(=O)O,O,mol_2615_solute_opt,mol_2615_solvent_opt,50,11,288.15,-1.190314235815796,L-tryptophan,water
2616.0,C/C=C/C[C@@H](C)[C@@H](O)[C@H]1C(=O)N[C@@H](CC)C(=O)N(C)CC(=O)N(C)[C@@H](CC(C)C)C(=O)N[C@@H](C(C)C)C(=O)N(C)[C@@H](CC(C)C)C(=O)N[C@@H](C)C(=O)N[C@H](C)C(=O)N(C)[C@@H](CC(C)C)C(=O)N(C)[C@@H](CC(C)C)C(=O)N(C)[C@@H](C(C)C)C(=O)N1C,O,mol_2616_solute_opt,mol_2616_solvent_opt,50,5,298.15,-4.624459850131668,Cyclosporine,water
2617.0,CC(=O)N[C@@H](CCC(N)=O)C(=O)O,O,mol_2617_solute_opt,mol_2617_solvent_opt,50,16,283.15,-0.9236076663628332,N-acetyl-L-glutamine,water
2618.0,Nc1cc(Cl)ccc1[N+](=O)[O-],O,mol_2618_solute_opt,mol_2618_solvent_opt,50,30,283.15,-3.5193657051623006,5-chloro-2-nitroaniline,water
2619.0,CCOC(=O)[C@@H](C)Oc1ccc(Oc2nc3ccc(Cl)cc3o2)cc1,O,mol_2619_solute_opt,mol_2619_solvent_opt,50,11,278.15,-3.969639334351257,Fenoxaprop-p-ethyl,water
2620.0,NC(=O)Cc1ccc(O)cc1,O,mol_2620_solute_opt,mol_2620_solvent_opt,50,17,278.15,-1.2729589394952172,4-hydroxyphenylacetamide,water
2621.0,Cc1cc(O)c2c(c1)C(=O)c1cc(O)cc(O)c1C2=O,O,mol_2621_solute_opt,mol_2621_solvent_opt,50,13,283.15,-5.7506145821329895,Emodin,water
2622.0,OCc1cn(Cc2ccccc2)nn1,O,mol_2622_solute_opt,mol_2622_solvent_opt,50,11,292.15,-1.088369126906953,"(1-benzyl-1H-1,2,3-triazole-4-yl)methanol",water
2623.0,CC1(C)C[C@@H]1C(N)=O,O,mol_2623_solute_opt,mol_2623_solvent_opt,50,19,294.8,-0.681771173053788,"(S)-(+)-2,2-dimethyl-cyclopropane carbox amide",water
2624.0,ClCc1ccc(Cl)nc1,O,mol_2624_solute_opt,mol_2624_solvent_opt,50,33,277.75,-2.033378802824985,2-chloro-5-chloromethylpyridine,water
2625.0,N[C@@H](CS)C(=O)O,O,mol_2625_solute_opt,mol_2625_solvent_opt,50,22,283.15,0.0759676723566322,L-cysteine,water
2626.0,COc1ccccc1OCCNCC(O)COc1cccc2[nH]c3ccccc3c12,O,mol_2626_solute_opt,mol_2626_solvent_opt,50,7,278.15,0.0461086048169947,Carvedilol,water
2627.0,COc1cc([N+](=O)[O-])ccc1N,O,mol_2627_solute_opt,mol_2627_solvent_opt,50,18,278.15,-3.650663916973649,2-methoxy-4-nitroaniline,water
2628.0,O=C(O)c1cc([N+](=O)[O-])cc([N+](=O)[O-])c1O,O,mol_2628_solute_opt,mol_2628_solvent_opt,50,21,278.15,-1.445470621280223,"3,5-dinitrosalicylic acid",water
2629.0,O=C(O)Cc1ccc([N+](=O)[O-])cc1,O,mol_2629_solute_opt,mol_2629_solvent_opt,50,18,283.15,-2.105561042355565,4-nitrophenylacetic acid,water
2630.0,CCOC(=O)C1(c2ccccc2)CCN(CCC(C#N)(c2ccccc2)c2ccccc2)CC1,O,mol_2630_solute_opt,mol_2630_solvent_opt,50,6,278.15,-3.6440284091003776,Diphenoxylate,water
2631.0,CC1=NN(c2ccccc2)C(=O)C1,O,mol_2631_solute_opt,mol_2631_solvent_opt,50,19,283.15,-2.071006691393271,Edaravone,water