pair_id,SMILES_Solute,SMILES_Solvent,Solute_name,Solvent_name,Total_conformers,Filtered_conformers,Temperature_K,LogS,Compound_Name,Solvent
1332.0,CCCc1nc(C(C)(C)O)c(C(=O)OCC)n1Cc1ccc(-c2ccccc2-c2nnnn2C(c2ccccc2)(c2ccccc2)c2ccccc2)cc1,CO,mol_1332_solute_opt,mol_1332_solvent_opt,50,11,278.15,-2.9789268273045595,N-trityl olmesartan ethyl ester,methanol
1333.0,O=C(O)c1cc([N+](=O)[O-])cc([N+](=O)[O-])c1,CO,mol_1333_solute_opt,mol_1333_solvent_opt,50,32,283.15,-0.0811117232335576,"3,5-dinitrobenzoic acid",methanol
1334.0,CC1(C)[C@@H](O)CC[C@]2(C)[C@H]3C(=O)C=C4[C@@H]5C[C@@](C)(C(=O)O)CC[C@]5(C)CC[C@@]4(C)[C@]3(C)CC[C@@H]12,CO,mol_1334_solute_opt,mol_1334_solvent_opt,50,10,278.15,-1.2391684111987271,18β-glycyrrhetinic acid,methanol
1335.0,N#Cc1ccncc1,CO,mol_1335_solute_opt,mol_1335_solvent_opt,50,39,278.15,0.0014096976795959,4-cyanopyridine,methanol
1336.0,O=C(Nc1ccccc1)Nc1ccnc(Cl)c1,CO,mol_1336_solute_opt,mol_1336_solvent_opt,50,22,278.15,-0.5194328833310095,Forchlorfenuron,methanol
1337.0,Nc1cccc2ccncc12,CO,mol_1337_solute_opt,mol_1337_solvent_opt,50,32,278.15,-2.050775156771334,8-isoquinolinamine,methanol
1338.0,CC(=O)c1ccc(O)cc1O,CO,mol_1338_solute_opt,mol_1338_solvent_opt,50,31,293.15,0.4519427746529272,"2′,4′-dihydroxyacetophenone",methanol
1339.0,Nc1ccnc(=O)[nH]1,CO,mol_1339_solute_opt,mol_1339_solvent_opt,50,40,288.15,-1.7468477857682017,Cytosine,methanol
1340.0,CCCCCCC1(CCCCCC)c2cc(Br)ccc2-c2ccc(Br)cc21,CO,mol_1340_solute_opt,mol_1340_solvent_opt,50,12,283.15,-2.450078795750895,"9,9-dihexyl-2,7-dibromofluorene",methanol
1341.0,O=c1cnc(Br)c[nH]1,CO,mol_1341_solute_opt,mol_1341_solvent_opt,50,41,278.15,-2.165441933747696,2-bromo-5-hydroxypyrazine,methanol
1342.0,CC1(C)CC[C@]2(C(=O)O)CC[C@]3(C)C(=CC[C@@H]4[C@@]5(C)CC[C@H](O)C(C)(C)[C@@H]5CC[C@]43C)[C@@H]2C1,CO,mol_1342_solute_opt,mol_1342_solvent_opt,50,11,278.15,-2.1380351289104205,Oleanolic acid,methanol
1343.0,C[C@H]1[C@H](C)CC[C@]2(C(=O)O)CC[C@]3(C)C(=CC[C@@H]4[C@@]5(C)CC[C@H](O)C(C)(C)[C@@H]5CC[C@]43C)[C@H]12,CO,mol_1343_solute_opt,mol_1343_solvent_opt,50,12,278.15,-1.9490162418754609,Ursolic acid,methanol
1344.0,Nc1cnc(Br)cn1,CO,mol_1344_solute_opt,mol_1344_solvent_opt,50,40,278.15,-1.6512554742105976,2-amino-5-bromopyrazine,methanol
1345.0,CC(=O)Oc1cc(C)c(OC(C)=O)c2ccccc12,CO,mol_1345_solute_opt,mol_1345_solvent_opt,50,22,283.1,-0.9365404334045908,Menadiol diacetate,methanol
1346.0,NC(=O)CC[C@H](N)C(=O)O,CO,mol_1346_solute_opt,mol_1346_solvent_opt,50,31,283.15,-2.6246639491048467,L-glutamine,methanol
1347.0,Cc1cc(C#N)c(Nc2ccccc2[N+](=O)[O-])s1,CO,mol_1347_solute_opt,mol_1347_solvent_opt,50,27,292.15,-1.5683247058693794,5-methyl-2-[(2-nitrophenyl)amino]-3-thiophenecarbonitrile,methanol
1348.0,c1ccc(-n2c3ccccc3c3ccccc32)cc1,CO,mol_1348_solute_opt,mol_1348_solvent_opt,50,13,278.15,-2.757169975870617,9-phenylcarbazole,methanol
1349.0,Nc1ccc(Br)nn1,CO,mol_1349_solute_opt,mol_1349_solvent_opt,50,39,278.15,-1.5671257529176983,3-amino-6-bromopyridazine,methanol
1350.0,CC(C)CCC[C@@H](C)[C@H]1CC[C@H]2[C@@H]3CC=C4C[C@@H](O)CC[C@]4(C)[C@H]3CC[C@]12C,CO,mol_1350_solute_opt,mol_1350_solvent_opt,50,12,283.2,-2.2800835422658645,Cholesterol,methanol
1351.0,O=C(Nc1ccncc1)c1cc(C(=O)Nc2ccncc2)cc(C(=O)Nc2ccncc2)c1,CO,mol_1351_solute_opt,mol_1351_solvent_opt,50,14,283.15,-2.8854851094874663,"N1,N3,N5-tris(pyridin-4-yl)benzene-1,3,5-tricarboxamide (TPBTC)",methanol
1352.0,Cc1ccc2cc(Br)ccc2n1,CO,mol_1352_solute_opt,mol_1352_solvent_opt,50,30,278.15,-2.233472377943289,6-bromo-2-methylquinoline,methanol
1353.0,NC(=O)c1ccncc1,CO,mol_1353_solute_opt,mol_1353_solvent_opt,50,34,278.15,-0.058627087316277,Isonicotinamide,methanol
1354.0,CC(O)(CS(=O)(=O)c1ccc(F)cc1)C(=O)Nc1ccc(C#N)c(C(F)(F)F)c1,CO,mol_1354_solute_opt,mol_1354_solvent_opt,50,13,278.15,-1.681052055541276,Bicalutamide,methanol
1355.0,O=S1(=O)OC(c2ccc(O)cc2)(c2ccc(O)cc2)c2ccccc21,CO,mol_1355_solute_opt,mol_1355_solvent_opt,50,30,278.15,-2.9050073006217465,Phenol red,methanol
1356.0,O=C(O)/C=C/c1cccc(O)c1,CO,mol_1356_solute_opt,mol_1356_solvent_opt,50,27,293.15,0.1281205141482604,trans-3-hydroxycinnamic acid,methanol
1357.0,Oc1ccc(C2(c3ccc(O)cc3)CCCCC2)cc1,CO,mol_1357_solute_opt,mol_1357_solvent_opt,50,21,288.15,-0.5205514146154325,Bisphenol Z (BPZ),methanol
1358.0,Cc1cccc(C(=O)O)c1,CO,mol_1358_solute_opt,mol_1358_solvent_opt,50,29,290.35,0.4558418568020666,m-methylbenzoic acid,methanol
1359.0,COC(=O)c1ccnc(N)c1,CO,mol_1359_solute_opt,mol_1359_solvent_opt,50,34,278.15,-1.3610113601960738,Methyl 2-aminopyridine-4-carboxylate,methanol
1360.0,CC(C)C[C@H](N)C(=O)O,CO,mol_1360_solute_opt,mol_1360_solvent_opt,50,25,283.15,-1.8556300924147795,L-leucine,methanol
1361.0,CC(C)[C@H](N)C(=O)O,CO,mol_1361_solute_opt,mol_1361_solvent_opt,50,26,283.15,-1.8350188116330497,L-valine,methanol
1362.0,CC1COC(Cn2cncn2)(c2ccc(Oc3ccc(Cl)cc3)cc2Cl)O1,CO,mol_1362_solute_opt,mol_1362_solvent_opt,50,19,278.15,-1.8675836293114767,Difenoconazole,methanol
1363.0,Oc1ccccc1C=Nc1c(F)cccc1F,CO,mol_1363_solute_opt,mol_1363_solvent_opt,50,27,273.15,-1.1202938195482344,"2-[[(2,6-difluorophenyl)imino]methyl]phenol",methanol
1364.0,c1ccc2c(c1)Cc1ccccc1-2,CO,mol_1364_solute_opt,mol_1364_solvent_opt,50,25,278.15,-1.3004850501694023,Fluorene,methanol
1365.0,O=C(O)CNC(=O)C(=O)NCC(=O)O,CO,mol_1365_solute_opt,mol_1365_solvent_opt,50,28,293.15,-2.4066181726415192,"N,N′-oxalyldiglycine",methanol
1366.0,O=C(O)c1cccc(O)c1,CO,mol_1366_solute_opt,mol_1366_solvent_opt,50,37,278.15,0.3482690046690849,m-Hydroxybenzoic acid,methanol
1367.0,O=C1C(CCS(=O)c2ccccc2)C(=O)N(c2ccccc2)N1c1ccccc1,CO,mol_1367_solute_opt,mol_1367_solvent_opt,50,21,283.15,-1.186659902326997,Sulfinpyrazone,methanol
1368.0,Nc1nonc1-c1no[n+]([O-])c1-c1nonc1N,CO,mol_1368_solute_opt,mol_1368_solvent_opt,50,26,283.15,-0.5405445691176384,"3,4-bis(4′-aminofurazan-3′-yl)furoxan",methanol
1369.0,CC(C)(C)c1ccc(-c2nnc(-c3ccc(-c4ccccc4)cc3)o2)cc1,CO,mol_1369_solute_opt,mol_1369_solvent_opt,50,19,283.15,-1.9873526321001056,"2-(4-tert-butylphenyl)-5-(4-biphenyl)-1,3,4-oxadiazole",methanol
1370.0,Nc1ncnc2c1ncn2CCOCP(=O)(O)O,CO,mol_1370_solute_opt,mol_1370_solvent_opt,50,24,278.15,-2.0531138813815764,Adefovir,methanol
1371.0,NC(=O)CS(=O)C(c1ccccc1)c1ccccc1,CO,mol_1371_solute_opt,mol_1371_solvent_opt,50,23,277.9,-1.3214785830412097,Modafinil,methanol
1372.0,O=c1ccc2cc(O)c(O)cc2o1,CO,mol_1372_solute_opt,mol_1372_solvent_opt,50,33,273.15,-0.1606751988464169,Esculetin,methanol
1373.0,COc1ccc(C(=O)c2ccc(OC)cc2)cc1,CO,mol_1373_solute_opt,mol_1373_solvent_opt,50,21,293.15,-1.7811717646481404,"4,4′-dimethoxybenzophenone",methanol
1374.0,CC(C)(N)C(=O)O,CO,mol_1374_solute_opt,mol_1374_solvent_opt,50,33,283.15,-1.806277278075588,α-Aminoisobutyric Acid,methanol
1375.0,N#CCC(N)=O,CO,mol_1375_solute_opt,mol_1375_solvent_opt,50,40,283.15,-0.3235739049931148,2-cyanoacetamide,methanol
1376.0,COc1ccc(/C=C/C(=O)O)cc1OC,CO,mol_1376_solute_opt,mol_1376_solvent_opt,50,26,283.15,-1.2968460595391549,"3,4-dimethoxycinnamic acid",methanol
1377.0,CCOc1ccc(OCC)cc1,CO,mol_1377_solute_opt,mol_1377_solvent_opt,50,27,278.15,-1.2829391766543707,"1,4-diethoxybenzene",methanol
1378.0,NNC(=O)c1ccccc1,CO,mol_1378_solute_opt,mol_1378_solvent_opt,50,30,283.15,-0.0267124078955152,Benzhydrazide,methanol
1379.0,NNC(=O)c1ccccc1O,CO,mol_1379_solute_opt,mol_1379_solvent_opt,50,30,283.15,-0.5103777756046121,2-Hydroxybenzohydrazide,methanol
1380.0,COC(=O)c1cc(OC)c2c(c1-c1c(C(=O)OC)cc(OC)c3c1OCO3)OCO2,CO,mol_1380_solute_opt,mol_1380_solvent_opt,50,16,293.15,-2.7513820144672,Bifendate,methanol
1381.0,OCC1(O)OC[C@@H](O)[C@@H](O)[C@H]1O,CO,mol_1381_solute_opt,mol_1381_solvent_opt,50,30,283.15,-0.3855482032226588,D-psicose,methanol
1382.0,CC(=O)O[C@H]1NC(=O)[C@@H]1[C@@H](C)O[Si](C)(C)C(C)(C)C,CO,mol_1382_solute_opt,mol_1382_solvent_opt,50,20,293.15,0.1922994125088202,4-acetoxyazetidin-2-one,methanol
1383.0,Oc1ccccc1C=N[C@@H]1CCCC[C@H]1N=Cc1ccccc1O,CO,mol_1383_solute_opt,mol_1383_solvent_opt,50,16,273.15,-1.8894737707870808,"Bis(salicylidene)-trans-1,2-cyclo-hexanediamine",methanol
1384.0,CC(C)[C@H](NC(=O)OCC1c2ccccc2-c2ccccc21)C(=O)O,CO,mol_1384_solute_opt,mol_1384_solvent_opt,50,19,283.15,-0.2163262472538243,Fmoc-L-valine,methanol
1385.0,O=[N+]([O-])c1ccc(Oc2ccc([N+](=O)[O-])cc2)cc1,CO,mol_1385_solute_opt,mol_1385_solvent_opt,50,35,283.15,-2.1885136703981014,"4,4′-dinitrodiphenyl ether",methanol
1386.0,CCCCN(CCCC)c1ccc(C(=O)c2ccccc2C(=O)O)c(O)c1,CO,mol_1386_solute_opt,mol_1386_solvent_opt,50,20,283.15,-1.387934427393266,2-[4-(dibutylamino)-2-hydroxybenzoyl] benzoic acid,methanol
1387.0,c1ccc2[nH]cnc2c1,CO,mol_1387_solute_opt,mol_1387_solvent_opt,50,36,283.15,0.3865314354892274,Benzimidazole,methanol
1388.0,CC[C@H](C)[C@H](N)C(=O)O,CO,mol_1388_solute_opt,mol_1388_solvent_opt,50,24,283.15,-1.7028659077926849,L-isoleucine,methanol
1389.0,Cc1cccc2sc(NN)nc12,CO,mol_1389_solute_opt,mol_1389_solvent_opt,50,29,273.15,-1.8270419043382589,2-hydrazino-4-methylbenzothiazole,methanol
1390.0,CCC[C@@H]1CC(=O)N([C@@H](CC)C(N)=O)C1,CO,mol_1390_solute_opt,mol_1390_solvent_opt,50,17,278.15,0.8851776443484745,Brivaracetam,methanol
1391.0,Cc1nc2n(c(=O)c1CCN1CCC(c3noc4cc(F)ccc34)CC1)CCCC2O,CO,mol_1391_solute_opt,mol_1391_solvent_opt,50,15,288.15,-2.592937953648498,Paliperidone,methanol
1392.0,CC(C(=O)O)c1ccc(CC2CCCC2=O)cc1,CO,mol_1392_solute_opt,mol_1392_solvent_opt,50,15,283.15,0.2705037222853403,Loxoprofen,methanol
1393.0,O=C(O)c1ccc(Cl)cc1Cl,CO,mol_1393_solute_opt,mol_1393_solvent_opt,50,38,273.15,-0.1687294817828592,"2,4-dichlorobenzoic acid",methanol
1394.0,Cn1nccc1O,CO,mol_1394_solute_opt,mol_1394_solvent_opt,50,31,278.15,0.3977725495709703,5-hydroxy-1-methylpyrazole,methanol
1395.0,Nc1ncccn1,CO,mol_1395_solute_opt,mol_1395_solvent_opt,50,36,272.65,-0.2594902805760393,2-aminopyrimidine,methanol
1396.0,O=P(NCc1ccccc1)(Oc1ccccc1)Oc1ccccc1,CO,mol_1396_solute_opt,mol_1396_solvent_opt,50,15,293.15,-0.5565764483441806,"Phosphoramidic acid, N-(phenylmethyl)-, diphenyl ester (PANDE)",methanol
1397.0,O=[N+]([O-])N1CN2CN(C1)CN([N+](=O)[O-])C2,CO,mol_1397_solute_opt,mol_1397_solvent_opt,50,29,288.15,-6.865999449791757,"3,7-dinitro-1,3,5,7-tetraazabicyclo [3.3.1] nonane",methanol
1398.0,COc1cc2oc(=O)cc(-c3ccccc3)c2cc1O,CO,mol_1398_solute_opt,mol_1398_solvent_opt,50,26,283.2,-1.899735951163043,Dalbergin,methanol
1399.0,O=c1cc(-c2ccccc2)c2cc(O)c(O)cc2o1,CO,mol_1399_solute_opt,mol_1399_solvent_opt,50,27,283.2,-1.608088707869599,Nordalbergin,methanol
1400.0,C=C(C)[C@@H]1CC[C@]2(C(=O)O)CC[C@]3(C)[C@H](CC[C@@H]4[C@@]5(C)CCC(=O)C(C)(C)[C@@H]5CC[C@]43C)[C@@H]12,CO,mol_1400_solute_opt,mol_1400_solvent_opt,50,14,278.15,-1.4886591315823707,Betulonic acid,methanol
1401.0,C=C1C[C@]23C[C@H]1CC[C@H]2[C@@]12CC[C@H](O)[C@@](C)(C(=O)O1)[C@H]2[C@@H]3C(=O)O,CO,mol_1401_solute_opt,mol_1401_solvent_opt,50,17,278.15,0.0890079814737129,Gibberellin A4,methanol
1402.0,O=Cc1ccc2ccccc2c1,CO,mol_1402_solute_opt,mol_1402_solvent_opt,50,36,283.15,-0.827528443875473,2-naphthaldehyde,methanol
1403.0,O=C1OC(=O)c2c(Cl)cccc21,CO,mol_1403_solute_opt,mol_1403_solvent_opt,50,38,283.15,0.2303684058041039,3-chlorophthalic anhydride,methanol
1404.0,O=C1OC(=O)c2cc(Cl)ccc21,CO,mol_1404_solute_opt,mol_1404_solvent_opt,50,42,283.15,0.36439506416194,4-chlorophthalic anhydride,methanol
1405.0,OC[C@@H](O)[C@@H](O[C@H]1O[C@H](CO)[C@@H](O)[C@H](O)[C@H]1O)[C@H](O)[C@@H](O)CO,CO,mol_1405_solute_opt,mol_1405_solvent_opt,50,18,298.15,-2.1475908093689333,Maltitol,methanol
1406.0,O=S(=O)(c1ccc(O)cc1)c1ccc(O)cc1,CO,mol_1406_solute_opt,mol_1406_solvent_opt,50,15,278.15,-2.347121400628207,"4,4′-dihydroxydiphenylsulfone",methanol
1407.0,O=C(O)c1ccccc1,CO,mol_1407_solute_opt,mol_1407_solvent_opt,50,33,278.0,0.4966883100998325,Benzoic acid,methanol
1408.0,CC(C)(C)OC(=O)N[C@@H](CC(=O)O)Cc1cc(F)c(F)cc1F,CO,mol_1408_solute_opt,mol_1408_solvent_opt,50,15,280.15,0.1470946800612831,"Boc-(R)-3-amino-4-(2,4,5-trifluorophenyl)butanoic acid",methanol
1409.0,CC(C)(C)c1ccc(OP2OCC3(CO2)COP(Oc2ccc(C(C)(C)C)cc2C(C)(C)C)OC3)c(C(C)(C)C)c1,CO,mol_1409_solute_opt,mol_1409_solvent_opt,50,13,304.65,-2.9103196430907388,Antioxidant 626,methanol
1410.0,O=C1OC[C@H]2[C@@H]1N(Cc1ccccc1)C(=O)N2Cc1ccccc1,CO,mol_1410_solute_opt,mol_1410_solvent_opt,50,21,287.15,-1.0715049245576067,(+)-biotin intermediate lactone,methanol
1411.0,O=C(O)c1cc(C(=O)O)cc(C(=O)O)c1,CO,mol_1411_solute_opt,mol_1411_solvent_opt,50,29,298.21,-0.5246464150210486,"1,3,5-benzenetricarboxylic acid",methanol
1412.0,CC[C@@]1(O)C(=O)OCc2c1cc1n(c2=O)Cc2cc3ccccc3nc2-1,CO,mol_1412_solute_opt,mol_1412_solvent_opt,50,19,277.52,-3.4956788475050846,Camptothecine,methanol
1413.0,CS(=O)(=O)c1ccc(C=O)cc1,CO,mol_1413_solute_opt,mol_1413_solvent_opt,50,16,283.15,-1.288511875380309,4-(methylsulfonyl)benzaldehyde,methanol
1414.0,CCOc1ncc(C)c2c1[C@H](c1ccc(C#N)cc1OC)C(C(N)=O)=C(C)N2,CO,mol_1414_solute_opt,mol_1414_solvent_opt,50,16,273.15,-0.9937919918475296,Finerenone,methanol
1415.0,CCOC(=O)c1ccc(N)cc1,CO,mol_1415_solute_opt,mol_1415_solvent_opt,50,31,283.15,0.1437634188256147,Benzocaine,methanol
1416.0,Cc1c(O)c(=O)ccn1C,CO,mol_1416_solute_opt,mol_1416_solvent_opt,50,32,283.1,-1.313137253628954,Deferiprone,methanol
1417.0,Nc1nnc(-c2cccc(Cl)c2Cl)c(N)n1,CO,mol_1417_solute_opt,mol_1417_solvent_opt,50,23,283.1,-2.3137855263421403,Lamotrigine,methanol
1418.0,O=C1NC(=O)c2cc([N+](=O)[O-])ccc21,CO,mol_1418_solute_opt,mol_1418_solvent_opt,50,38,273.15,-1.4514619538829854,4-nitrophthalimide,methanol
1419.0,O=C1NC23NC(=O)NC2(N1)C(=O)NC3=O,CO,mol_1419_solute_opt,mol_1419_solvent_opt,50,36,273.15,-1.3889030762990655,"3,7,9,11-Tetraoxo-2,4,6,8,10-pentaaza[3.3.3] Propellane (TOPAP)",methanol
1420.0,O=C(O)/C=C/c1ccc(O)cc1,CO,mol_1420_solute_opt,mol_1420_solvent_opt,50,24,293.15,-0.0353121753083438,p-coumaric acid,methanol
1421.0,COC(=O)[C@H](N)c1ccc(O)cc1,CO,mol_1421_solute_opt,mol_1421_solvent_opt,50,30,283.1,-1.2575019590700474,Methyl D-(−)-4-hydroxy-phenylglycinate,methanol
1422.0,CC(=O)c1ccc(S(C)(=O)=O)cc1,CO,mol_1422_solute_opt,mol_1422_solvent_opt,50,20,278.15,-0.3859345279676612,4-methylsulfonylacetophenone,methanol
1423.0,CCOC(=O)N1CCC(=C2c3ccc(Cl)cc3CCc3cccnc32)CC1,CO,mol_1423_solute_opt,mol_1423_solvent_opt,50,20,283.14,-0.4095367551994302,Loratadine,methanol
1424.0,O=[N+]([O-])N1C2C3N([N+](=O)[O-])C1C1N([N+](=O)[O-])C(C(N1[N+](=O)[O-])N3[N+](=O)[O-])N2[N+](=O)[O-],CO,mol_1424_solute_opt,mol_1424_solvent_opt,50,18,278.15,-1.4006033027392644,ε-CL-20,methanol
1425.0,O=C(O)Cc1cccc2ccccc12,CO,mol_1425_solute_opt,mol_1425_solvent_opt,50,27,278.25,0.348797808968298,1-naphthaleneacetic acid,methanol
1426.0,CCCCC1C(=O)N(c2ccccc2)N(c2ccccc2)C1=O,CO,mol_1426_solute_opt,mol_1426_solvent_opt,50,18,283.12,-0.9772758155868498,Phenylbutazone,methanol
1427.0,CC(=O)Oc1ccc(C2CC(=O)c3c(OC(C)=O)cc(OC(C)=O)cc3O2)cc1,CO,mol_1427_solute_opt,mol_1427_solvent_opt,50,18,278.2,-1.5129449649230822,"4′,5,7-triacetoxyflavanone",methanol
1428.0,O=C(O)c1c(O)cccc1O,CO,mol_1428_solute_opt,mol_1428_solvent_opt,50,34,278.15,0.7972071004123757,"2,6-dihydroxybenzoic acid",methanol
1429.0,CC(C)(C)c1ccc(C(=O)O)cc1,CO,mol_1429_solute_opt,mol_1429_solvent_opt,50,25,293.15,0.1664992329935986,Para-tert-butylbenzoic acid,methanol
1430.0,CCOc1cc(C=O)ccc1O,CO,mol_1430_solute_opt,mol_1430_solvent_opt,50,30,273.15,0.3801401462583051,Ethyl vanillin,methanol
1431.0,Cn1c(=O)c2[nH]cnc2n(C)c1=O,CO,mol_1431_solute_opt,mol_1431_solvent_opt,50,31,288.06,-1.7180707594119544,Theophylline,methanol
1432.0,Cn1c(=O)c2c(ncn2C)n(C)c1=O,CO,mol_1432_solute_opt,mol_1432_solvent_opt,50,29,288.24,-1.477301819920421,Caffeine,methanol
1433.0,Cn1cnc2c1c(=O)[nH]c(=O)n2C,CO,mol_1433_solute_opt,mol_1433_solvent_opt,50,33,288.07,-3.1546398275300573,Theobromine,methanol
1434.0,CC(=O)Nc1ccc(O)cc1,CO,mol_1434_solute_opt,mol_1434_solvent_opt,50,26,293.45,0.1926936676426562,Paracetamol,methanol
1435.0,O=C(c1ccccc1)C(O)c1ccccc1,CO,mol_1435_solute_opt,mol_1435_solvent_opt,50,20,283.15,-1.5450285848642973,Benzoin,methanol
1436.0,N#Cc1cccnc1,CO,mol_1436_solute_opt,mol_1436_solvent_opt,50,36,268.15,0.3881255599336844,3-cyanopyridine,methanol
1437.0,On1nnc2ccccc21,CO,mol_1437_solute_opt,mol_1437_solvent_opt,50,35,278.15,-0.2413119842545595,1-hydroxybenzotriazole,methanol
1438.0,COc1cc(C(=O)O)cc(OC)c1O,CO,mol_1438_solute_opt,mol_1438_solvent_opt,50,26,283.15,-0.4597172802965594,Syringic acid,methanol
1439.0,CC(C)(C#N)N=NC(C)(C)C#N,CO,mol_1439_solute_opt,mol_1439_solvent_opt,50,27,268.15,-1.0617783243613446,"2,2′-azobisisobutyronitrile (AIBN)",methanol
1440.0,CS(=O)(=O)c1ccc([C@@H](O)[C@@H](CO)NC(=O)C(Cl)Cl)cc1,CO,mol_1440_solute_opt,mol_1440_solvent_opt,50,15,278.15,-2.238548679332648,Thiamphenicol,methanol
1441.0,CC1(C)COP(=O)(C(Nc2ccccc2)c2ccccc2)OC1,CO,mol_1441_solute_opt,mol_1441_solvent_opt,50,15,278.15,-1.4201762158518136,"5,5-dimethyl-2-(phenyl(phenylamino)methyl)-1,3,2-dioxaphosphinane 2-oxide",methanol
1442.0,N#Cc1cccc([N+](=O)[O-])c1,CO,mol_1442_solute_opt,mol_1442_solvent_opt,50,39,278.15,-0.9852413190802872,3-nitrobenzonitrile,methanol
1443.0,OC/C=C/c1ccccc1,CO,mol_1443_solute_opt,mol_1443_solvent_opt,50,28,253.15,0.8681372355256401,Trans-cinnamyl alcohol,methanol
1444.0,CO/C=C(/C(=O)OC)c1ccccc1Oc1cc(Oc2ccccc2C#N)ncn1,CO,mol_1444_solute_opt,mol_1444_solvent_opt,50,14,288.15,-1.4756689124814664,Azoxystrobin,methanol
1445.0,CC1(C)COP(=O)(Oc2cccc(OP3(=O)OCC(C)(C)CO3)c2)OC1,CO,mol_1445_solute_opt,mol_1445_solvent_opt,50,16,293.15,-1.264158460953757,"Resorcinol bis(cyclic 2,2-dimethyl-1,3-propanediol phosphate)",methanol
1446.0,Cc1ccc(-c2ncc(Cl)cc2-c2ccc(S(C)(=O)=O)cc2)cn1,CO,mol_1446_solute_opt,mol_1446_solvent_opt,50,12,298.2,-0.0152207198280818,Etoricoxib,methanol
1447.0,Cc1ccccc1S(N)(=O)=O,CO,mol_1447_solute_opt,mol_1447_solvent_opt,50,33,283.15,-0.1474269407063304,o-Toluenesulfonamide,methanol
1448.0,O=C(O)c1ccc(C(=O)O)o1,CO,mol_1448_solute_opt,mol_1448_solvent_opt,50,28,313.15,-0.9845371323122016,"2,5-furandicarboxylic acid",methanol
1449.0,CN1CC(O)c2cc(N=NC(N)=O)c(O)cc21,CO,mol_1449_solute_opt,mol_1449_solvent_opt,50,27,278.15,-3.0487101301138164,Carbazochrome,methanol
1450.0,Nc1ccc(S(=O)(=O)Nc2ccc(Cl)nn2)cc1,CO,mol_1450_solute_opt,mol_1450_solvent_opt,50,28,283.15,-0.9259700967838492,Sulfachloropyridazine,methanol
1451.0,COc1ccc(C(=O)N2CCCC2=O)cc1,CO,mol_1451_solute_opt,mol_1451_solvent_opt,50,19,273.15,-1.6186717660675114,Aniracetam,methanol
1452.0,Cc1cc(C)nc(Nc2ccccc2)n1,CO,mol_1452_solute_opt,mol_1452_solvent_opt,50,20,283.15,-0.4568339500423967,Pyrimethanil,methanol
1453.0,CC(=O)c1ccc([N+](=O)[O-])cc1,CO,mol_1453_solute_opt,mol_1453_solvent_opt,50,34,278.15,-0.6726494641349392,1-(4-nitrophenyl)ethanone,methanol
1454.0,CC(=O)c1cccc([N+](=O)[O-])c1,CO,mol_1454_solute_opt,mol_1454_solvent_opt,50,31,278.15,-0.7893411089034894,1-(3-nitrophenyl)ethanone,methanol
1455.0,O=C(c1ccccc1)c1ccccc1,CO,mol_1455_solute_opt,mol_1455_solvent_opt,50,27,278.15,-0.2726175132677889,Benzophenone,methanol
1456.0,Nc1nc(Cl)cc(Cl)n1,CO,mol_1456_solute_opt,mol_1456_solvent_opt,50,38,278.15,-1.544320377716612,"2-amino-4,6-dichoropyrimidine",methanol
1457.0,C[C@H](O)[C@@H](O)[C@@H](O)[C@H](O)C=O,CO,mol_1457_solute_opt,mol_1457_solvent_opt,50,26,288.15,-1.2695828742601565,L-fucose,methanol
1458.0,COCC(=O)Nc1c(I)c(C(=O)NCC(O)CO)c(I)c(C(=O)N(C)CC(O)CO)c1I,CO,mol_1458_solute_opt,mol_1458_solvent_opt,50,15,273.15,-2.223699136024643,Iopromide,methanol
1459.0,O=c1nc[nH]c2[nH]ncc12,CO,mol_1459_solute_opt,mol_1459_solvent_opt,50,40,278.15,-3.288046679245174,Allopurinol,methanol
1460.0,COc1ccc2c(c1)c(CC(=O)O)c(C)n2C(=O)c1ccc(Cl)cc1,CO,mol_1460_solute_opt,mol_1460_solvent_opt,50,24,298.15,-1.251188601977102,Indomethacin,methanol
1461.0,COc1ccc2cc([C@H](C)C(=O)O)ccc2c1,CO,mol_1461_solute_opt,mol_1461_solvent_opt,50,24,298.15,-0.5184239620840368,(S)-Naproxen,methanol
1462.0,N#Cc1ccc([N+](=O)[O-])cc1,CO,mol_1462_solute_opt,mol_1462_solvent_opt,50,44,278.15,-1.0931313629111223,4-nitrobenzonitrile,methanol
1463.0,NC(=O)c1cccnc1,CO,mol_1463_solute_opt,mol_1463_solvent_opt,50,35,283.15,0.1552888672847184,Nicotinamide,methanol