pair_id,SMILES_Solute,SMILES_Solvent,Solute_name,Solvent_name,Total_conformers,Filtered_conformers,Temperature_K,LogS,Compound_Name,Solvent
3026.0,O=C1OC(=O)[C@H]2[C@@H]1[C@@H]1C=C[C@H]2C1,CCOC(C)=O,mol_3026_solute_opt,mol_3026_solvent_opt,50,44,278.15,-0.5016858684739482,"cis-5-norbornene-exo-2,3-dicarboxylic anhydride",ethyl acetate
3027.0,COc1ccccc1N1CCN(CC(O)COc2cccc3ccccc23)CC1,CCOC(C)=O,mol_3027_solute_opt,mol_3027_solvent_opt,50,37,273.15,-1.335794066187034,Naftopidil,ethyl acetate
3028.0,Cc1ccc(NC(=O)c2ccc(CN3CCN(C)CC3)cc2)cc1Nc1nccc(-c2cccnc2)n1,CCOC(C)=O,mol_3028_solute_opt,mol_3028_solvent_opt,50,26,273.15,-3.044240220395165,Imatinib,ethyl acetate
3029.0,O=c1[nH]c(=O)n(C2CCCO2)cc1F,CCOC(C)=O,mol_3029_solute_opt,mol_3029_solvent_opt,50,46,273.15,-1.1933032012978595,β tegafur,ethyl acetate
3030.0,Cn1c(=O)c2c(ncn2CC2OCCO2)n(C)c1=O,CCOC(C)=O,mol_3030_solute_opt,mol_3030_solvent_opt,50,32,273.15,-1.1027852132322444,Doxofylline,ethyl acetate
3031.0,N#Cc1ccc2c(c1)OCO2,CCOC(C)=O,mol_3031_solute_opt,mol_3031_solvent_opt,50,46,278.15,0.0088551159696691,Piperonylonitrile,ethyl acetate
3032.0,O=C(O)CCc1nc(-c2ccccc2)c(-c2ccccc2)o1,CCOC(C)=O,mol_3032_solute_opt,mol_3032_solvent_opt,50,38,278.15,-1.3803113111750214,Oxaprozin,ethyl acetate
3033.0,COCCOC(=O)C1=C(C)NC(C)=C(C(=O)OC(C)C)C1c1cccc([N+](=O)[O-])c1,CCOC(C)=O,mol_3033_solute_opt,mol_3033_solvent_opt,50,40,278.15,-1.8779132323660344,Nimodipine,ethyl acetate
3034.0,CC(=O)Nc1ccc(OC(=O)c2ccccc2OC(C)=O)cc1,CCOC(C)=O,mol_3034_solute_opt,mol_3034_solvent_opt,50,43,278.15,-2.025365113889616,Benorilate,ethyl acetate
3035.0,O=c1cc(CO)occ1O,CCOC(C)=O,mol_3035_solute_opt,mol_3035_solvent_opt,50,42,278.15,-2.0760507451765844,Kojic acid,ethyl acetate
3036.0,CCCCN(CCCC)CC(O)c1cc(Cl)cc2c1-c1ccc(Cl)cc1/C2=C/c1ccc(Cl)cc1,CCOC(C)=O,mol_3036_solute_opt,mol_3036_solvent_opt,50,29,278.15,-1.731466468534654,Benflumetol,ethyl acetate
3037.0,CS(=O)(=O)OCCCCOS(C)(=O)=O,CCOC(C)=O,mol_3037_solute_opt,mol_3037_solvent_opt,50,49,278.15,-2.3962983590608915,Busulfan,ethyl acetate
3038.0,Cc1ccc(Nc2nccc(N(C)c3ccc4c(C)n(C)nc4c3)n2)cc1S(N)(=O)=O,CCOC(C)=O,mol_3038_solute_opt,mol_3038_solvent_opt,50,24,288.15,-4.197570631513901,Pazopanib,ethyl acetate
3039.0,CCCNS(=O)(=O)Nc1ncnc(OCCOc2ncc(Br)cn2)c1-c1ccc(Br)cc1,CCOC(C)=O,mol_3039_solute_opt,mol_3039_solvent_opt,50,38,273.15,-1.448002315748216,Macitentan,ethyl acetate
3040.0,Nc1cccc2c1C(=O)N(C1CCC(=O)NC1=O)C2=O,CCOC(C)=O,mol_3040_solute_opt,mol_3040_solvent_opt,50,41,278.15,-5.328713614931934,Pomalidomide,ethyl acetate
3041.0,CN1CCN(C2=Nc3cc(Cl)ccc3Nc3ccccc32)CC1,CCOC(C)=O,mol_3041_solute_opt,mol_3041_solvent_opt,50,33,278.15,-1.0261988546879257,Clozapine,ethyl acetate
3042.0,Clc1ncnc2[nH]ccc12,CCOC(C)=O,mol_3042_solute_opt,mol_3042_solvent_opt,50,44,278.15,-0.8545824174537531,6-chloro-7-azapurine,ethyl acetate
3043.0,O=C(/C=C/C=C/c1ccc2c(c1)OCO2)N1CCCCC1,CCOC(C)=O,mol_3043_solute_opt,mol_3043_solvent_opt,50,35,278.15,-1.0715338147106706,Piperine,ethyl acetate
3044.0,O=C(O)COc1ccc(Cl)cc1Cl,CCOC(C)=O,mol_3044_solute_opt,mol_3044_solvent_opt,50,38,278.15,-0.2186694786158007,"2,4-dichlorophenoxyacetic acid",ethyl acetate
3045.0,S=C(Nc1ccccc1)Nc1ccccc1,CCOC(C)=O,mol_3045_solute_opt,mol_3045_solvent_opt,50,42,283.15,-1.1618564309171466,"N,N'-diphenyl thiourea (DPTU)",ethyl acetate
3046.0,CC(=O)NC1CCSC1=O,CCOC(C)=O,mol_3046_solute_opt,mol_3046_solvent_opt,50,44,278.15,-0.7482084378832284,Citiolone,ethyl acetate
3047.0,CC(CO)(CO)C(=O)O,CCOC(C)=O,mol_3047_solute_opt,mol_3047_solvent_opt,50,39,288.15,-2.364215525846733,Dimethylolpropionic acid,ethyl acetate
3048.0,O=C1CCc2cc(O)ccc2N1,CCOC(C)=O,mol_3048_solute_opt,mol_3048_solvent_opt,50,42,278.15,-2.157901825422812,"6-hydroxy-3,4-dihydro-2(1H)-quinolone",ethyl acetate
3049.0,CCS(=O)(=O)CCn1c([N+](=O)[O-])cnc1C,CCOC(C)=O,mol_3049_solute_opt,mol_3049_solvent_opt,50,43,278.15,-1.456857369450375,Tinidazole,ethyl acetate
3050.0,O=c1[nH]c2cc(Cl)ccc2o1,CCOC(C)=O,mol_3050_solute_opt,mol_3050_solvent_opt,50,46,278.15,-0.6833393107811233,Chlorzoxazone,ethyl acetate
3051.0,CC(C)OC(=O)[C@H](C)N[P@](=O)(Oc1ccccc1)Oc1c(F)c(F)c(F)c(F)c1F,CCOC(C)=O,mol_3051_solute_opt,mol_3051_solvent_opt,50,29,278.15,-1.1153615600902007,SOV-I2,ethyl acetate
3052.0,O=[N+]([O-])c1cc([N+](=O)[O-])c(Cl)c([N+](=O)[O-])c1Cl,CCOC(C)=O,mol_3052_solute_opt,mol_3052_solvent_opt,50,44,298.15,-0.0429480108578528,"1,3-dichloro-2,4,6-trinitrobenzene",ethyl acetate
3053.0,O=C(O)COc1ccc2ccccc2c1,CCOC(C)=O,mol_3053_solute_opt,mol_3053_solvent_opt,50,41,278.15,-0.8142149505203257,2-naphthoxyacetic acid,ethyl acetate
3054.0,O=c1c2ccccc2sc2ccccc12,CCOC(C)=O,mol_3054_solute_opt,mol_3054_solvent_opt,50,40,292.15,-1.551935713816469,9H-thioxanthen-9-one,ethyl acetate
3055.0,O=C(Nc1ccc(F)cc1F)c1cccnc1Oc1cccc(C(F)(F)F)c1,CCOC(C)=O,mol_3055_solute_opt,mol_3055_solvent_opt,50,41,278.15,-0.9549005842082704,Diflufenican,ethyl acetate
3056.0,CC(=O)c1c(C)cc(C(C)(C)C)cc1C,CCOC(C)=O,mol_3056_solute_opt,mol_3056_solvent_opt,50,32,273.15,0.8017824516984426,"1-(4-tert-butyl-2,6-dimethylphenyl)ethenone",ethyl acetate
3057.0,CONC(=O)Nc1ccc(-c2sc3c(c2CN(C)C)c(=O)n(-c2ccc(OC)nn2)c(=O)n3Cc2c(F)cccc2F)cc1,CCOC(C)=O,mol_3057_solute_opt,mol_3057_solvent_opt,50,31,298.15,-2.4274497594666813,Relugolix,ethyl acetate
3058.0,O=C1CCC(=O)CC1,CCOC(C)=O,mol_3058_solute_opt,mol_3058_solvent_opt,50,49,278.15,0.0289493373540013,"1,4-cyclohexanedione",ethyl acetate
3059.0,O=C(O)c1cccnc1,CCOC(C)=O,mol_3059_solute_opt,mol_3059_solvent_opt,50,45,283.15,-2.4659500024038805,Nicotinic acid,ethyl acetate
3060.0,CCOc1cccc(C=O)c1O,CCOC(C)=O,mol_3060_solute_opt,mol_3060_solvent_opt,50,41,278.15,0.2061616903824244,3-ethoxysalicylaldehyde,ethyl acetate
3061.0,C1=Cc2ccccc2Nc2ccccc21,CCOC(C)=O,mol_3061_solute_opt,mol_3061_solvent_opt,50,43,278.15,-0.9771230544229657,Iminostilbene,ethyl acetate
3062.0,COc1ccc(Cl)cc1C(=O)NCCc1ccc(S(=O)(=O)NC(=O)NC2CCCCC2)cc1,CCOC(C)=O,mol_3062_solute_opt,mol_3062_solvent_opt,50,40,283.15,-3.048760365445553,Glyburide,ethyl acetate
3063.0,CC(C)(C)C(=O)C(Oc1ccc(Cl)cc1)n1ccnc1,CCOC(C)=O,mol_3063_solute_opt,mol_3063_solvent_opt,50,33,288.15,0.0123049672145534,Climbazole,ethyl acetate
3064.0,COc1ccc2cccc(CCNC(C)=O)c2c1,CCOC(C)=O,mol_3064_solute_opt,mol_3064_solvent_opt,50,37,278.15,-1.1581837466739442,Agomelatine,ethyl acetate
3065.0,Clc1cccnc1Cl,CCOC(C)=O,mol_3065_solute_opt,mol_3065_solvent_opt,50,43,278.15,0.317548779366458,"2,3-dichloropyridine",ethyl acetate
3066.0,CCCCN(CCCC)c1ccc2c(c1)Oc1cc(C)c(Nc3ccccc3)cc1C21OC(=O)c2ccccc21,CCOC(C)=O,mol_3066_solute_opt,mol_3066_solvent_opt,50,24,283.15,-1.658171678985537,2-anilino-6-(dibutylamino)-3-methylfluoran,ethyl acetate
3067.0,Nc1nc(N)c2nc(-c3ccccc3)c(N)nc2n1,CCOC(C)=O,mol_3067_solute_opt,mol_3067_solvent_opt,50,36,283.15,-4.520265533383999,Triamterene,ethyl acetate
3068.0,CC(=O)C1C(=O)C=C(C)OC1=O,CCOC(C)=O,mol_3068_solute_opt,mol_3068_solvent_opt,50,41,288.45,-0.2677652195976367,Dehydroacetic acid,ethyl acetate
3069.0,O=C(O)/C=C/c1ccc(Cl)cc1,CCOC(C)=O,mol_3069_solute_opt,mol_3069_solvent_opt,50,48,283.15,-1.781699124573144,trans-4-chlorocinnamic acid,ethyl acetate
3070.0,CCOc1ccc2ccccc2c1C(=O)O,CCOC(C)=O,mol_3070_solute_opt,mol_3070_solvent_opt,50,34,278.15,-0.7978040087428683,2-ethoxy-1-naphthoic acid,ethyl acetate
3071.0,N#Cc1ccc(C(c2ccc(C#N)cc2)n2cncn2)cc1,CCOC(C)=O,mol_3071_solute_opt,mol_3071_solvent_opt,50,41,283.15,-1.260833390720551,Letrozole,ethyl acetate
3072.0,Cc1ncc([N+](=O)[O-])n1CCO,CCOC(C)=O,mol_3072_solute_opt,mol_3072_solvent_opt,50,44,293.15,-1.5134133555995473,Metronidazole,ethyl acetate
3073.0,O=c1c(O)c(-c2cc(O)c(O)c(O)c2)oc2cc(O)cc(O)c12,CCOC(C)=O,mol_3073_solute_opt,mol_3073_solvent_opt,50,40,298.15,-2.2022004758771447,Myricetin,ethyl acetate
3074.0,O=c1c(O)c(-c2ccc(O)c(O)c2)oc2cc(O)cc(O)c12,CCOC(C)=O,mol_3074_solute_opt,mol_3074_solvent_opt,50,39,298.15,-1.6441830067213157,Quercetin,ethyl acetate
3075.0,O=c1c(O)c(-c2ccc(O)cc2)oc2cc(O)cc(O)c12,CCOC(C)=O,mol_3075_solute_opt,mol_3075_solvent_opt,50,41,298.15,-1.33625502374574,Kampferol,ethyl acetate
3076.0,OC[C@H]1O[C@@H](Oc2cc(O)cc(/C=C/c3ccc(O)cc3)c2)[C@H](O)[C@@H](O)[C@@H]1O,CCOC(C)=O,mol_3076_solute_opt,mol_3076_solvent_opt,50,34,298.15,-3.1652840829312443,trans-piceid,ethyl acetate
3077.0,O=C(O)c1cccc([N+](=O)[O-])c1,CCOC(C)=O,mol_3077_solute_opt,mol_3077_solvent_opt,50,46,298.2,0.210838198720741,3-nitrobenzoic acid,ethyl acetate
3078.0,O=C1CCC(=O)O1,CCOC(C)=O,mol_3078_solute_opt,mol_3078_solvent_opt,50,48,278.15,-0.274593378160614,Succinic anhydride,ethyl acetate
3079.0,OC[C@@H](O)[C@@H](O)[C@H](O)[C@@H](O)CO,CCOC(C)=O,mol_3079_solute_opt,mol_3079_solvent_opt,50,44,278.15,-2.6034246144048816,D-sorbitol,ethyl acetate
3080.0,Cc1cnc(NC(=O)C2=C(O)c3ccccc3S(=O)(=O)N2C)s1,CCOC(C)=O,mol_3080_solute_opt,mol_3080_solvent_opt,50,40,293.15,-2.4006355471428624,Meloxicam,ethyl acetate
3081.0,COc1c(NS(=O)(=O)c2ccc(C)cc2)cc(-c2ccc3ncnc(N4CCOCC4)c3c2)cc1C(N)=O,CCOC(C)=O,mol_3081_solute_opt,mol_3081_solvent_opt,50,32,288.15,-2.53138490086806,2-methoxy-3-(4-methylphenylsulfonamido)-5-(4-morpholinoquinazolin-6-yl)benzamide,ethyl acetate
3082.0,COc1c(NS(=O)(=O)c2ccc(F)cc2)cc(-c2ccc3nccc(N4CCOCC4)c3c2)cc1C(N)=O,CCOC(C)=O,mol_3082_solute_opt,mol_3082_solvent_opt,50,35,288.15,-2.994035982309266,3-(4-fluorophenylsulfonamido)-2-methoxy-5-(4-morpholinoquinolin-6-yl)benzamide,ethyl acetate
3083.0,COc1c(NS(=O)(=O)c2ccc(F)cc2)cc(-c2ccc3ncnc(N4CCOCC4)c3c2)cc1C(N)=O,CCOC(C)=O,mol_3083_solute_opt,mol_3083_solvent_opt,50,27,288.15,-3.0094711118183675,3-(4-fluorophenylsulfonamido)-2-methoxy-5-(4-morpholinoquinazolin-6-yl)benzamide,ethyl acetate
3084.0,O=P(NC1CCCCC1)(Oc1ccccc1)Oc1ccccc1,CCOC(C)=O,mol_3084_solute_opt,mol_3084_solvent_opt,50,32,293.15,-0.4929255585233313,Cyclohexyl-phosphoramidic acid diphenyl ester,ethyl acetate
3085.0,CN1C(C(=O)Nc2ccccn2)=C(O)c2sc(Cl)cc2S1(=O)=O,CCOC(C)=O,mol_3085_solute_opt,mol_3085_solvent_opt,50,41,298.15,-3.069659028259341,Lornoxicam,ethyl acetate
3086.0,CCOC(=O)Cc1c(C(=O)OCC)sc(N(CC(=O)OCC)CC(=O)OCC)c1C#N,CCOC(C)=O,mol_3086_solute_opt,mol_3086_solvent_opt,50,33,283.15,-0.6243221769982013,Tetraethyl ranelate,ethyl acetate
3087.0,O=P(O)(O)c1ccccc1,CCOC(C)=O,mol_3087_solute_opt,mol_3087_solvent_opt,50,44,288.15,-1.2668682488371363,Phenylphosphonic acid,ethyl acetate
3088.0,CN1C(C(=O)Nc2ccccn2)=C(O)c2ccccc2S1(=O)=O,CCOC(C)=O,mol_3088_solute_opt,mol_3088_solvent_opt,50,40,293.2,-1.3589769752801155,Piroxicam,ethyl acetate
3089.0,O=[N+]([O-])c1cccc2c([N+](=O)[O-])cccc12,CCOC(C)=O,mol_3089_solute_opt,mol_3089_solvent_opt,50,43,273.15,-2.16685244361485,"1,5-dinitro-naphthalen",ethyl acetate
3090.0,COc1cc(/C=C/C(=O)O)cc(OC)c1O,CCOC(C)=O,mol_3090_solute_opt,mol_3090_solvent_opt,50,35,298.15,-1.2652291813124543,Sinapic acid,ethyl acetate
3091.0,COc1cc(-c2cc(-c3ccc(Br)cc3)[nH]c(=O)c2C#N)ccc1O,CCOC(C)=O,mol_3091_solute_opt,mol_3091_solvent_opt,50,40,298.15,-1.956355762931892,"6-(4-bromophenyl)-4-(4-hydroxy-3-methoxyphenyl)-2-oxo-1,2-dihydropyridine-3-carbonitrile",ethyl acetate
3092.0,COc1cc(-c2cc(-c3ccc(Cl)cc3)[nH]c(=O)c2C#N)ccc1O,CCOC(C)=O,mol_3092_solute_opt,mol_3092_solvent_opt,50,34,298.15,-1.9017117433136643,"6-(4-chlorophenyl)-4-(4-hydroxy-3-methoxyphenyl)-2-oxo-1,2-dihydropyridine-3-carbonitrile",ethyl acetate
3093.0,COc1cc(-c2cc(-c3ccc(F)cc3)[nH]c(=O)c2C#N)ccc1O,CCOC(C)=O,mol_3093_solute_opt,mol_3093_solvent_opt,50,34,298.15,-1.8682111269279715,"6-(4-fluorophenyl)-4-(4-hydroxy-3-methoxyphenyl)-2-oxo-1,2-dihydropyridine-3-carbonitrile",ethyl acetate
3094.0,COc1cc(-c2cc(-c3ccc(O)cc3)[nH]c(=O)c2C#N)ccc1O,CCOC(C)=O,mol_3094_solute_opt,mol_3094_solvent_opt,50,37,298.15,-1.9683887745705533,"4-(4-hydroxy-3-methoxyphenyl)-6-(4-hydroxyphenyl)-2-oxo-1,2-dihydropyridine-3 -carbonitrile",ethyl acetate
3095.0,COc1ccc(-c2cc(-c3ccc(O)c(OC)c3)c(C#N)c(=O)[nH]2)cc1,CCOC(C)=O,mol_3095_solute_opt,mol_3095_solvent_opt,50,37,298.15,-1.961743647906922,"4-(4-hydroxy-3-methoxyphenyl)-6-(4-methoxyphenyl)-2-oxo-1,2-dihydropyridine-3-carbonitrile",ethyl acetate
3096.0,CCOc1ccc(C2NC(=O)NC=C2C(=O)c2cc(OC)c(OC)c(OC)c2)cc1,CCOC(C)=O,mol_3096_solute_opt,mol_3096_solvent_opt,50,30,298.15,-1.8374999048813507,"4-(4-ethoxyphenyl)-5-(3,4,5 trimethoxybenzoyl)-3,4-dihydropyrimidine-2(1H)-one (DHP-5)",ethyl acetate
3097.0,C=CC(=O)NCO,CCOC(C)=O,mol_3097_solute_opt,mol_3097_solvent_opt,50,45,278.55,-0.9397288793898652,N-hydroxymethyl acrylamide,ethyl acetate
3098.0,O=C(O)/C=C/c1ccc(O)c(O)c1,CCOC(C)=O,mol_3098_solute_opt,mol_3098_solvent_opt,50,37,293.15,-1.8965701454436708,Caffeic acid,ethyl acetate
3099.0,C=C1CC[C@H](O)C/C1=C/C=C1\CCC[C@]2(C)[C@@H]([C@H](C)CCCC(C)C)CC[C@@H]12,CCOC(C)=O,mol_3099_solute_opt,mol_3099_solvent_opt,50,36,273.2,0.018512993824292,Vitamin D3,ethyl acetate
3100.0,Cc1cnc(N)s1,CCOC(C)=O,mol_3100_solute_opt,mol_3100_solvent_opt,50,41,278.15,-0.2400955158973755,2-amino-5-methylthiazole,ethyl acetate
3101.0,COc1cc(/C=C/C(=O)O)ccc1O,CCOC(C)=O,mol_3101_solute_opt,mol_3101_solvent_opt,50,35,298.2,-0.8739074222185826,Ferulic acid,ethyl acetate
3102.0,Cc1ccc(-c2ccccc2C#N)cc1,CCOC(C)=O,mol_3102_solute_opt,mol_3102_solvent_opt,50,39,268.05,0.313630188814292,2-cyano-4′-methylbiphenyl,ethyl acetate
3103.0,O=Cc1ccc(O)cc1,CCOC(C)=O,mol_3103_solute_opt,mol_3103_solvent_opt,50,46,278.15,-0.1000682867676946,4-hydroxybenzaldehyde,ethyl acetate
3104.0,O=C1CCC(c2ccccc2)=NN1,CCOC(C)=O,mol_3104_solute_opt,mol_3104_solvent_opt,50,46,293.2,-1.043223203185914,"6-phenyl-4,5-dihydropyridazin-3(2H)-one",ethyl acetate
3105.0,CCN(CC)CC(=O)Nc1c(C)cccc1C,CCOC(C)=O,mol_3105_solute_opt,mol_3105_solvent_opt,50,36,292.15,-1.2091583452625991,Lidocaine,ethyl acetate
3106.0,OCCCCCCO,CCOC(C)=O,mol_3106_solute_opt,mol_3106_solvent_opt,50,45,278.15,-0.8051890119119466,"1,6-hexanediol",ethyl acetate
3107.0,CC(=O)Nc1cccc(N)c1,CCOC(C)=O,mol_3107_solute_opt,mol_3107_solvent_opt,50,43,278.15,-0.4488388583449525,"N-acetyl-1,3-phenylenediamine",ethyl acetate
3108.0,Cc1occc(=O)c1O,CCOC(C)=O,mol_3108_solute_opt,mol_3108_solvent_opt,50,44,288.15,-0.922690830680822,Maltol,ethyl acetate
3109.0,Cc1c(N)c(=O)n(-c2ccccc2)n1C,CCOC(C)=O,mol_3109_solute_opt,mol_3109_solvent_opt,50,38,299.05,-0.0547411232175348,4-aminoantipyrine,ethyl acetate
3110.0,COc1c(C)c2c(c(O)c1C/C=C(\C)CCC(=O)OCCN1CCOCC1)C(=O)OC2,CCOC(C)=O,mol_3110_solute_opt,mol_3110_solvent_opt,50,35,298.2,-0.124310726596469,Mycophenolate mofetil,ethyl acetate
3111.0,CC(C)(C)c1cc(CCC(=O)NCCCCCCNC(=O)CCc2cc(C(C)(C)C)c(O)c(C(C)(C)C)c2)cc(C(C)(C)C)c1O,CCOC(C)=O,mol_3111_solute_opt,mol_3111_solvent_opt,50,32,283.15,-2.196172173263112,"1,6-bis[3-(3,5-di-tert-butyl-4-hydroxyphenyl)propionamido]hexane",ethyl acetate
3112.0,O=c1cc(-c2ccc(O)c(O)c2)oc2cc(O)cc(O)c12,CCOC(C)=O,mol_3112_solute_opt,mol_3112_solvent_opt,50,41,298.2,-1.5757581241121073,Luteolin,ethyl acetate
3113.0,OC[C@H]1O[C@@H](Oc2c(O)cc(O)cc2/C=C/c2ccc(O)cc2)[C@H](O)[C@@H](O)[C@@H]1O,CCOC(C)=O,mol_3113_solute_opt,mol_3113_solvent_opt,50,30,278.15,-1.3355682604484211,"2,3,5,4′-tetrahydroxystilbene-2-o-β-d-glucoside",ethyl acetate
3114.0,Cc1cc(=O)n(-c2ccccc2)n1C,CCOC(C)=O,mol_3114_solute_opt,mol_3114_solvent_opt,50,40,288.15,-0.6778433382710481,Antipyrine,ethyl acetate
3115.0,O=C(O)c1cccc2ccccc12,CCOC(C)=O,mol_3115_solute_opt,mol_3115_solvent_opt,50,46,293.15,-0.509223646492442,1-naphthoic acid,ethyl acetate
3116.0,CC1=CC(=O)C(C(C)C)=CC1=O,CCOC(C)=O,mol_3116_solute_opt,mol_3116_solvent_opt,50,39,298.2,-0.4856131579723357,Thymoquinone,ethyl acetate
3117.0,COc1ccc(-c2nn(-c3ccccc3)cc2/C=C/C(=O)c2nc3ccccc3[nH]2)cc1,CCOC(C)=O,mol_3117_solute_opt,mol_3117_solvent_opt,50,28,298.15,-2.0848888710799027,(E)‑1‑(1H‑benzo[d]imidazole‑2‑yl)‑3‑(3‑(4‑methxyphenyl)‑1‑phenyl‑1H‑pyrazol‑4‑yl) prop‑2‑en‑1-one,ethyl acetate
3118.0,COc1ccc(-c2nn(-c3ccccc3)cc2/C=C/C(=O)c2nc3ccccc3[nH]2)cc1OC,CCOC(C)=O,mol_3118_solute_opt,mol_3118_solvent_opt,50,34,298.15,-2.4425856287613668,"(E)‑1‑(1H‑benzo[d]imidazole‑2‑yl)‑3‑(3‑(3,4‑dimethoxyphenyl)‑1‑phenyl‑1H‑pyrazol‑4‑yl)prop‑2‑en‑1-one",ethyl acetate
3119.0,COc1cccc(-c2nn(-c3ccccc3)cc2/C=C/C(=O)c2nc3ccccc3[nH]2)c1,CCOC(C)=O,mol_3119_solute_opt,mol_3119_solvent_opt,50,31,298.15,-2.610975359991453,(E)‑1‑(1H‑benzo[d]imidazole‑2‑yl)‑3‑(3‑methxyphenyl‑1H‑pyrazol‑4‑yl)prop‑2‑en-1-one,ethyl acetate
3120.0,O=C(/C=C/c1cn(-c2ccccc2)nc1-c1ccc(Cl)cc1)c1nc2ccccc2[nH]1,CCOC(C)=O,mol_3120_solute_opt,mol_3120_solvent_opt,50,34,298.15,-2.5839200615474134,(E)‑1‑(1H‑benzo[d]imidazole‑2‑yl)‑3‑(3‑(4‑chlorophenyl)‑phenyl‑1H‑pyrazol‑4‑yl) prop‑2‑en‑1-one,ethyl acetate
3121.0,O=C(/C=C/c1cn(-c2ccccc2)nc1-c1ccc(F)cc1)c1nc2ccccc2[nH]1,CCOC(C)=O,mol_3121_solute_opt,mol_3121_solvent_opt,50,29,298.15,-1.8195652005275835,(E)‑1‑(1H‑benzo[d]imidazole‑2‑yl)‑3‑(3‑(4‑fluorophenyl)‑1H‑pyrazol‑4‑yl)pop‑2‑en‑1-one,ethyl acetate
3122.0,O=C(/C=C/c1cn(-c2ccccc2)nc1-c1cccc([N+](=O)[O-])c1)c1nc2ccccc2[nH]1,CCOC(C)=O,mol_3122_solute_opt,mol_3122_solvent_opt,50,31,298.15,-1.8787150331536189,(E)‑1‑(1H‑benzo[d]imidazole‑2‑yl)‑3‑(3‑(3‑nitrophenyl)‑1‑phenyl‑1H‑pyrazol‑4‑yl) prop‑2‑en‑1-one,ethyl acetate
3123.0,O=C(/C=C/c1cn(-c2ccccc2)nc1-c1ccccc1)c1nc2ccccc2[nH]1,CCOC(C)=O,mol_3123_solute_opt,mol_3123_solvent_opt,50,28,298.15,-2.7919912452903484,"(E)‑1‑(1H‑benzo[d]imidazole‑2‑yl)‑3‑(1, 3‑diphenyl‑1H‑pyrazol‑4‑yl) prop‑2‑en‑1-one",ethyl acetate
3124.0,O=C(/C=C/c1cn(-c2ccccc2)nc1-c1ccccc1Cl)c1nc2ccccc2[nH]1,CCOC(C)=O,mol_3124_solute_opt,mol_3124_solvent_opt,50,30,298.15,-2.106632167187429,(E)‑1‑(1H‑benzo[d]imidazole‑2-yl)‑3‑(3‑(2‑chlorophenyl)‑1‑phenyl‑1H‑pyrazol‑4‑yl) prop‑2‑en‑1-one,ethyl acetate
3125.0,Nc1ccc(S(=O)(=O)c2ccc(N)cc2)cc1,CCOC(C)=O,mol_3125_solute_opt,mol_3125_solvent_opt,50,32,283.15,-0.9748792797108996,Dapsone,ethyl acetate
3126.0,C=CC(=O)Nc1cc(Nc2nccc(-c3cn(C)c4ccccc34)n2)c(OC)cc1N(C)CCN(C)C,CCOC(C)=O,mol_3126_solute_opt,mol_3126_solvent_opt,50,26,298.2,-1.8823833100090888,Osimertinib,ethyl acetate
3127.0,NC(=O)c1ccccc1,CCOC(C)=O,mol_3127_solute_opt,mol_3127_solvent_opt,50,47,283.15,-0.6610548517449836,Benzamide,ethyl acetate
3128.0,CC1(C)S[C@@H]2[C@H](NC(=O)[C@H](NC(=O)N3CCNC3=O)c3ccccc3)C(=O)N2[C@H]1C(=O)O,CCOC(C)=O,mol_3128_solute_opt,mol_3128_solvent_opt,50,35,278.15,-2.641387088392064,Azlocillin,ethyl acetate
3129.0,O=C(NC(Cc1cc(=O)[nH]c2ccccc12)C(=O)O)c1ccc(Cl)cc1,CCOC(C)=O,mol_3129_solute_opt,mol_3129_solvent_opt,50,37,288.15,-4.706613061491554,Rebamipide,ethyl acetate
3130.0,NC(=O)Cc1ccccc1,CCOC(C)=O,mol_3130_solute_opt,mol_3130_solvent_opt,50,42,273.75,-1.4464118193283226,2-phenylacetamide,ethyl acetate
3132.0,CC(=O)c1c(C)c([N+](=O)[O-])c(C(C)(C)C)c([N+](=O)[O-])c1C,CCOC(C)=O,mol_3132_solute_opt,mol_3132_solvent_opt,50,35,278.15,-0.1397531240872678,Musk ketone,ethyl acetate
3133.0,COC(=O)c1cc(O)c(O)c(O)c1,CCOC(C)=O,mol_3133_solute_opt,mol_3133_solvent_opt,50,40,293.15,-0.6445430096024224,Methyl gallate,ethyl acetate
3134.0,Cc1ccc(S(N)(=O)=O)cc1,CCOC(C)=O,mol_3134_solute_opt,mol_3134_solvent_opt,50,43,273.15,-0.4021909331149261,p-Toluenesulfonamide,ethyl acetate
3135.0,COc1ccccc1OCCNCC(O)COc1cccc2[nH]c3ccccc3c12,CCOC(C)=O,mol_3135_solute_opt,mol_3135_solvent_opt,50,36,288.15,-1.8109040683935749,Carvedilol,ethyl acetate
3136.0,CC(=O)OC(c1ccccc1)C(Cl)(Cl)Cl,CCOC(C)=O,mol_3136_solute_opt,mol_3136_solvent_opt,50,39,288.15,0.1362569155578873,Alpha-(trichloromethyl) benzyl acetate,ethyl acetate
3137.0,CCCCCOC(=O)Nc1nc(=O)n([C@@H]2O[C@H](C)[C@@H](O)[C@H]2O)cc1F,CCOC(C)=O,mol_3137_solute_opt,mol_3137_solvent_opt,50,32,278.15,-1.5035002277318317,Capecitabine,ethyl acetate
3138.0,O=C1Cc2cc(F)ccc2N1,CCOC(C)=O,mol_3138_solute_opt,mol_3138_solvent_opt,50,45,278.15,-0.8034054679610931,5-fluoro-2-oxindole,ethyl acetate
3139.0,CCCCCCCCCCCCCCCCCC(=O)O,CCOC(C)=O,mol_3139_solute_opt,mol_3139_solvent_opt,50,34,293.15,-0.6697812692003335,Stearic acid,ethyl acetate
3140.0,O=C1C2C3C=CC(C3)C2C(=O)N1O,CCOC(C)=O,mol_3140_solute_opt,mol_3140_solvent_opt,50,45,278.15,-1.1208484534482592,"N-hydroxy-5-norbornene-2,3-dicarboximide",ethyl acetate
3141.0,CC1(C)[C@H](C(=O)O)[C@@H]1/C=C(\Cl)C(F)(F)F,CCOC(C)=O,mol_3141_solute_opt,mol_3141_solvent_opt,50,43,283.15,-0.0350804587983422,Cyhalothric acid,ethyl acetate