pair_id,SMILES_Solute,SMILES_Solvent,Solute_name,Solvent_name,Total_conformers,Filtered_conformers,Temperature_K,LogS,Compound_Name,Solvent
2228.0,COC(=O)C(C)(C)N=NC(C)(C)C(=O)OC,CC(C)O,mol_2228_solute_opt,mol_2228_solvent_opt,50,31,252.05,-1.0485180729449266,"2,2′-azobis(2-methylpropionate)",isopropanol
2229.0,NC(N)=NC(N)=NCCc1ccccc1,CC(C)O,mol_2229_solute_opt,mol_2229_solvent_opt,50,33,278.15,-1.9656054155599565,Phenformin,isopropanol
2230.0,Cc1cc(=O)oc2cc(N)ccc12,CC(C)O,mol_2230_solute_opt,mol_2230_solvent_opt,50,41,278.15,-1.8619274942203063,7-amino-4-methylcoumarin,isopropanol
2231.0,CN(C)Cc1c[nH]c2ccccc12,CC(C)O,mol_2231_solute_opt,mol_2231_solvent_opt,50,38,273.15,-0.7531322072908986,Gramine,isopropanol
2232.0,Nc1ccc(Cl)cc1[N+](=O)[O-],CC(C)O,mol_2232_solute_opt,mol_2232_solvent_opt,50,46,278.15,-0.8251207110939399,4-chloro-2-nitroaniline,isopropanol
2233.0,O=Cc1ccc(O)c(Br)c1,CC(C)O,mol_2233_solute_opt,mol_2233_solvent_opt,50,44,278.15,-0.9754604473750064,3-bromo-4-hydroxybenzaldehyde,isopropanol
2234.0,CC1(C)NC(=O)NC1=O,CC(C)O,mol_2234_solute_opt,mol_2234_solvent_opt,50,39,283.15,-0.299304806171822,"5,5-dimethylhydantoin",isopropanol
2235.0,ON(Cc1ccccc1)Cc1ccccc1,CC(C)O,mol_2235_solute_opt,mol_2235_solvent_opt,50,27,273.15,-2.1517410141726407,"N,N-dibenzylhydroxylamine",isopropanol
2236.0,Cc1nc(CCl)nc2ccccc12,CC(C)O,mol_2236_solute_opt,mol_2236_solvent_opt,50,37,281.15,-0.226085558797454,2-chloromethyl-4-methylquinazoline,isopropanol
2237.0,CC(=O)N[C@@H](CC(C)C)C(=O)O,CC(C)O,mol_2237_solute_opt,mol_2237_solvent_opt,50,31,283.15,-0.622877227402293,N-acetyl-L-leucine,isopropanol
2238.0,O=c1[nH]c2ccccc2c(=O)o1,CC(C)O,mol_2238_solute_opt,mol_2238_solvent_opt,50,39,288.15,-1.865438647952276,Isatoic anhydride,isopropanol
2239.0,Oc1c(Br)cc(Br)c2cccnc12,CC(C)O,mol_2239_solute_opt,mol_2239_solvent_opt,50,46,288.15,-3.0328440499544453,"5,7-dibromo-8-hydroxyquinoline",isopropanol
2240.0,CC(=O)NC1(C)CCC2CC1C(C)=NC2(C)C,CC(C)O,mol_2240_solute_opt,mol_2240_solvent_opt,50,31,298.15,-1.759116908284434,"8-acetamide-2,4,4,8-tetramethyl-3-azabicyclo[3.3.1]non-2-ene perchlorate",isopropanol
2241.0,O=C1CCC(c2ccc(Cl)c(Cl)c2)c2ccccc21,CC(C)O,mol_2241_solute_opt,mol_2241_solvent_opt,50,41,278.12,-1.8959530866061447,"4-(3,4-dichlorophenyl)-1-tetralone",isopropanol
2242.0,OC[C@@H](O)C(O)[C@@H](O)CO,CC(C)O,mol_2242_solute_opt,mol_2242_solvent_opt,50,33,293.28,-1.830917786089757,Xylitol,isopropanol
2243.0,c1ccc(P(c2ccccc2)c2ccccc2)cc1,CC(C)O,mol_2243_solute_opt,mol_2243_solvent_opt,50,31,303.1,-0.998634049028575,Triphenylphosphine,isopropanol
2244.0,COP(=O)(NC(C)=O)SC,CC(C)O,mol_2244_solute_opt,mol_2244_solvent_opt,50,42,299.3,-0.0768571668126939,Acephate,isopropanol
2245.0,c1nc[nH]n1,CC(C)O,mol_2245_solute_opt,mol_2245_solvent_opt,50,41,283.17,0.2932500039505859,"1H-1,2,4-triazole",isopropanol
2246.0,CC(C)Cc1ccc(C(C)C(=O)O)cc1,CC(C)O,mol_2246_solute_opt,mol_2246_solvent_opt,50,33,282.97,0.285193246615297,Ibuprofen,isopropanol
2247.0,N[C@@H](Cc1ccc([N+](=O)[O-])cc1[N+](=O)[O-])C(=O)O,CC(C)O,mol_2247_solute_opt,mol_2247_solvent_opt,50,41,273.15,-4.694845126402243,"2,4-dinitro-L-phenylalanine",isopropanol
2248.0,CO/N=C(/C(=O)N[C@@H]1C(=O)N2C(C(=O)O)=C(COC(N)=O)CS[C@H]12)c1ccco1,CC(C)O,mol_2248_solute_opt,mol_2248_solvent_opt,50,37,278.5,-3.0984654987580256,Cefuroxime acid,isopropanol
2249.0,COC(=O)/C=C/C(=O)OC,CC(C)O,mol_2249_solute_opt,mol_2249_solvent_opt,50,35,295.8,-1.1559685276216465,Dimethyl fumarate,isopropanol
2250.0,CCOc1nc2cccc(C(=O)OC(C)OC(=O)OC3CCCCC3)c2n1Cc1ccc(-c2ccccc2-c2nn[nH]n2)cc1,CC(C)O,mol_2250_solute_opt,mol_2250_solvent_opt,50,25,278.15,-2.461390394597053,Candesartan cilexetil,isopropanol
2251.0,CC(=O)[C@@]12O[C@@H]1CC1C3CCC4=CC(=O)CC[C@]4(C)C3CC[C@@]12C,CC(C)O,mol_2251_solute_opt,mol_2251_solvent_opt,50,33,296.65,-1.3963053699495156,"16α,17α-Epoxyprogesterone",isopropanol
2252.0,CC(=O)[C@@]12O[C@@H]1CC1C3CCC4=CC(=O)CC[C@]4(C)C3[C@H](O)C[C@@]12C,CC(C)O,mol_2252_solute_opt,mol_2252_solvent_opt,50,33,297.95,-2.151902082090536,"11α-Hydroxy-16α,17α-epoxyprogesterone",isopropanol
2253.0,CC(C)Cc1ccc([C@H](C)C(=O)O)cc1,CC(C)O,mol_2253_solute_opt,mol_2253_solvent_opt,50,35,263.15,0.2968885292703215,Dexibuprofen,isopropanol
2254.0,O=C(CCc1ccc(O)cc1)c1c(O)cc(O)cc1O,CC(C)O,mol_2254_solute_opt,mol_2254_solvent_opt,50,36,288.2,-0.3204477472890307,Phloretin,isopropanol
2255.0,N=c1nc(N2CCCCC2)cc(N)n1O,CC(C)O,mol_2255_solute_opt,mol_2255_solvent_opt,50,33,278.15,-1.5311235471907414,Minoxidil,isopropanol
2256.0,CC1(C)CC[C@]2(C(=O)O)CC[C@]3(C)C(=CC[C@@H]4[C@@]5(C)CC[C@H](O)C(C)(C)[C@@H]5CC[C@]43C)[C@@H]2C1,CC(C)O,mol_2256_solute_opt,mol_2256_solvent_opt,50,27,283.2,-1.973653149723862,Oleanolic acid,isopropanol
2257.0,C[C@H]1[C@H](C)CC[C@]2(C(=O)O)CC[C@]3(C)C(=CC[C@@H]4[C@@]5(C)CC[C@H](O)C(C)(C)[C@@H]5CC[C@]43C)[C@H]12,CC(C)O,mol_2257_solute_opt,mol_2257_solvent_opt,50,24,293.6,-1.7237068442562244,Ursolic acid,isopropanol
2258.0,COC(=O)C1CC(=O)C(C(=O)OC)CC1=O,CC(C)O,mol_2258_solute_opt,mol_2258_solvent_opt,50,38,278.15,-1.7429867311459168,Dimethyl succinylsuccinate,isopropanol
2259.0,Clc1cc(Cl)c(OCCBr)c(Cl)c1,CC(C)O,mol_2259_solute_opt,mol_2259_solvent_opt,50,41,278.1,-1.1150410209044257,"2-(2,4,6-trichlorophenoxy)ethyl bromide",isopropanol
2260.0,C=C(C)[C@@H]1CC[C@]2(C(=O)O)CC[C@]3(C)[C@H](CC[C@@H]4[C@@]5(C)CC[C@H](O)C(C)(C)[C@@H]5CC[C@]43C)[C@@H]12,CC(C)O,mol_2260_solute_opt,mol_2260_solvent_opt,50,27,278.2,-1.9925066057439256,Betulinic acid,isopropanol
2261.0,C[N+](C)(C)CC(=O)[O-],CC(C)O,mol_2261_solute_opt,mol_2261_solvent_opt,50,28,283.45,-1.2157592528987389,Betaine,isopropanol
2262.0,Cc1cc(C)c(C(=O)P(=O)(C(=O)c2c(C)cc(C)cc2C)c2ccccc2)c(C)c1,CC(C)O,mol_2262_solute_opt,mol_2262_solvent_opt,50,30,295.4,-1.43948745482252,"Bis(2,4,6-trimethylbenzoyl)phenylphosphine oxide",isopropanol
2263.0,Nc1cccnn1,CC(C)O,mol_2263_solute_opt,mol_2263_solvent_opt,50,38,288.15,-0.7902790922750244,Pyridazin-3-amine,isopropanol
2264.0,O=C(O)c1ccccc1O,CC(C)O,mol_2264_solute_opt,mol_2264_solvent_opt,50,32,298.2,0.339790995068831,Salicylic acid,isopropanol
2265.0,C[C@@H]1OC(=O)[C@H](C)OC1=O,CC(C)O,mol_2265_solute_opt,mol_2265_solvent_opt,50,42,279.65,-0.958626121542031,L-lactide,isopropanol
2266.0,O=P(CCCO)(CCCO)CCCO,CC(C)O,mol_2266_solute_opt,mol_2266_solvent_opt,50,36,298.13,-0.6883789499440177,Tris(3-hydroxypropyl)phosphine oxide,isopropanol
2267.0,COc1ccc(C(=O)O)cc1OC,CC(C)O,mol_2267_solute_opt,mol_2267_solvent_opt,50,30,278.37,-1.4953262921005823,Veratric acid,isopropanol
2268.0,O=C(O)[C@@H]1Cc2ccccc2N1,CC(C)O,mol_2268_solute_opt,mol_2268_solvent_opt,50,39,283.15,-1.904857578832968,(S)-indoline-2-carboxylic acid,isopropanol
2269.0,CCNc1nc(Cl)nc(NC(C)C)n1,CC(C)O,mol_2269_solute_opt,mol_2269_solvent_opt,50,32,283.15,-1.65041500965987,Atrazine,isopropanol
2270.0,Cc1cccc(Nc2ccccc2C(=O)O)c1C,CC(C)O,mol_2270_solute_opt,mol_2270_solvent_opt,50,31,298.0,-1.5841012472268905,Mefenamic acid,isopropanol
2271.0,O=C(O)c1cc2ccccc2[nH]1,CC(C)O,mol_2271_solute_opt,mol_2271_solvent_opt,50,39,278.35,-0.2436223417306688,Indole-2-carboxylic acid,isopropanol
2272.0,O=P12OCC(CO)(CO1)CO2,CC(C)O,mol_2272_solute_opt,mol_2272_solvent_opt,50,42,292.95,-1.5023030310711762,"4-(hydroxymethyl)-1-oxido-2,6,7-trioxa-1-phosphabicyclo[2.2.2]octane",isopropanol
2273.0,O=[N+]([O-])c1ccc(Cl)c(Cl)c1,CC(C)O,mol_2273_solute_opt,mol_2273_solvent_opt,50,43,278.15,-0.6748300497065315,"3,4-dichloronitrobenzene",isopropanol
2274.0,O=[N+]([O-])c1cccc(Cl)c1Cl,CC(C)O,mol_2274_solute_opt,mol_2274_solvent_opt,50,46,278.15,-0.8756352893439397,"2,3-dichloronitrobenzene",isopropanol
2275.0,O=C(O)COC(=O)Cc1ccccc1Nc1c(Cl)cccc1Cl,CC(C)O,mol_2275_solute_opt,mol_2275_solvent_opt,50,36,293.75,-1.1053690672569838,Aceclofenac,isopropanol
2276.0,C[N+](C)(C)C[C@H](O)CC(=O)[O-],CC(C)O,mol_2276_solute_opt,mol_2276_solvent_opt,50,37,278.15,-1.7105965096334967,L-carnitine,isopropanol
2277.0,COc1ccc([C@@H]2CC(=O)c3c(O)cc(O[C@@H]4O[C@H](CO[C@@H]5O[C@@H](C)[C@H](O)[C@@H](O)[C@H]5O)[C@@H](O)[C@H](O)[C@H]4O)cc3O2)cc1O,CC(C)O,mol_2277_solute_opt,mol_2277_solvent_opt,50,29,298.15,-3.701456421252676,Hesperidin,isopropanol
2278.0,CCN1CCN(c2cc3c(cc2F)c(=O)c(C(=O)O)cn3C2CC2)CC1,CC(C)O,mol_2278_solute_opt,mol_2278_solvent_opt,50,32,303.15,-2.023556572024798,Enrofloxacin,isopropanol
2279.0,Oc1cccc(/C=N\NC(=S)NC2CCCCC2)c1,CC(C)O,mol_2279_solute_opt,mol_2279_solvent_opt,50,29,298.15,-0.3920889061102869,(2Z)-N-cyclohexyl-2-(3-hydroxybenzylidine) hydrazine carbothioamide,isopropanol
2280.0,c1ccc2c(c1)sc1ccccc12,CC(C)O,mol_2280_solute_opt,mol_2280_solvent_opt,50,37,278.15,-1.4869566355157462,Dibenzothiophene,isopropanol
2281.0,O=C(NNC(=S)Nc1ccc(Cl)cc1)c1ccncc1,CC(C)O,mol_2281_solute_opt,mol_2281_solvent_opt,50,29,298.15,-1.8325850230943403,N-(4-chlorophenyl)-2-(pyridin-4-ylcarbonyl)hydrazinecarbothioamide,isopropanol
2282.0,O=C(O)[C@@H]1CCCN1,CC(C)O,mol_2282_solute_opt,mol_2282_solvent_opt,50,40,298.15,-2.0010259011993883,L-proline,isopropanol
2283.0,Nc1ccc(S(=O)(=O)O)cc1,CC(C)O,mol_2283_solute_opt,mol_2283_solvent_opt,50,48,278.15,-2.4732462622334017,Sulfanilic acid,isopropanol
2284.0,COC(=O)[C@H]1[C@H]2C[C@@H]3c4[nH]c5cc(OC)ccc5c4CCN3C[C@H]2C[C@@H](OC(=O)c2cc(OC)c(OC)c(OC)c2)[C@@H]1OC,CC(C)O,mol_2284_solute_opt,mol_2284_solvent_opt,50,24,298.15,-3.5005376697442325,Reserpine,isopropanol
2285.0,C[C@@H]1O[C@@H](O[C@H]2[C@H](Oc3cc(O)c4c(c3)O[C@H](c3ccc(O)cc3)CC4=O)O[C@H](CO)[C@@H](O)[C@@H]2O)[C@H](O)[C@H](O)[C@H]1O,CC(C)O,mol_2285_solute_opt,mol_2285_solvent_opt,50,28,288.15,-3.780665788128759,Naringin,isopropanol
2286.0,O=C1C[C@@H](c2ccc(O)cc2)Oc2cc(O)cc(O)c21,CC(C)O,mol_2286_solute_opt,mol_2286_solvent_opt,50,41,288.15,-0.8729965938420595,Naringenin,isopropanol
2287.0,O=C1Nc2ccccc2C1=O,CC(C)O,mol_2287_solute_opt,mol_2287_solvent_opt,50,37,298.15,-1.2621169570400477,Isatin,isopropanol
2288.0,COc1ccc(C(=O)O)c(OC)c1,CC(C)O,mol_2288_solute_opt,mol_2288_solvent_opt,50,36,288.15,-1.1078266278244282,"2,4-dimethoxybenzoic acid",isopropanol
2289.0,Cc1ccc2ccccc2c1,CC(C)O,mol_2289_solute_opt,mol_2289_solvent_opt,50,40,278.25,-0.422974800535116,2-methylnaphthalene,isopropanol
2290.0,Nc1ccc(Cc2ccc(N)cc2)cc1,CC(C)O,mol_2290_solute_opt,mol_2290_solvent_opt,50,35,293.15,-0.8374579251790479,"4,4′-diaminodiphenylmethane",isopropanol
2291.0,O=C(O)Cn1cnnn1,CC(C)O,mol_2291_solute_opt,mol_2291_solvent_opt,50,38,288.17,-0.4187444499856123,1H-Tetrazole-1-acetic Acid,isopropanol
2292.0,Nc1cccc(N)n1,CC(C)O,mol_2292_solute_opt,mol_2292_solvent_opt,50,42,266.25,-0.5145626423948827,"2,6-diaminopyridine",isopropanol
2293.0,C1=Cc2cccc3cccc1c23,CC(C)O,mol_2293_solute_opt,mol_2293_solvent_opt,50,40,278.3,-1.2036125892245455,Acenaphthylene,isopropanol
2294.0,CCc1ccc(C(=O)c2ccccc2C(=O)O)cc1,CC(C)O,mol_2294_solute_opt,mol_2294_solvent_opt,50,33,279.79,-1.5145278147975458,2-(4-ethylbenzoyl)benzoic acid,isopropanol
2295.0,CCCCCCCCCCCCCCCCCC(=O)O,CC(C)O,mol_2295_solute_opt,mol_2295_solvent_opt,50,26,292.35,-0.8833123674936414,Stearic acid,isopropanol
2296.0,CC(C)(C)C(=O)OCOP(=O)(COCCn1cnc2c(N)ncnc21)OCOC(=O)C(C)(C)C,CC(C)O,mol_2296_solute_opt,mol_2296_solvent_opt,50,25,298.15,-0.4736281085634418,Adefovir dipivoxil,isopropanol
2297.0,O=P(O)(c1ccccc1)c1ccccc1,CC(C)O,mol_2297_solute_opt,mol_2297_solvent_opt,50,33,288.15,-1.2499849201447335,Diphenylphosphinic acid,isopropanol
2298.0,CN(C)CCn1[nH]nnc1=S,CC(C)O,mol_2298_solute_opt,mol_2298_solvent_opt,50,37,293.15,-3.343184630445593,1-(2-dimethylaminoethyl)-5-mercapto-1H-tetrazole,isopropanol
2299.0,c1ccc2oc(CSCc3nc4ccccc4o3)nc2c1,CC(C)O,mol_2299_solute_opt,mol_2299_solvent_opt,50,36,278.15,-1.5118603131626054,Bis(benzoxazolyl-2-methyl) sulfide,isopropanol
2300.0,O=C(Oc1ccccc1)Oc1ccccc1,CC(C)O,mol_2300_solute_opt,mol_2300_solvent_opt,50,34,283.0,-1.1728624079358612,Diphenyl carbonate,isopropanol
2301.0,CCCCCCCCCCCCCCCC(=O)O,CC(C)O,mol_2301_solute_opt,mol_2301_solvent_opt,50,29,291.75,-0.4397284395825165,Palmitic acid,isopropanol
2302.0,O=C(Oc1ccccc1)c1ccccc1O,CC(C)O,mol_2302_solute_opt,mol_2302_solvent_opt,50,39,283.15,-0.6438285298790208,Salol,isopropanol
2303.0,CCCCCCCCCCCC(=O)O,CC(C)O,mol_2303_solute_opt,mol_2303_solvent_opt,50,27,279.2,0.0605536334435756,Lauric acid,isopropanol
2304.0,O=C(O)c1ccncc1,CC(C)O,mol_2304_solute_opt,mol_2304_solvent_opt,50,41,299.35,-2.135825932789869,Isonicotinic acid,isopropanol
2305.0,O=C(O)CCC(=O)O,CC(C)O,mol_2305_solute_opt,mol_2305_solvent_opt,50,44,282.75,-0.6229361116318031,Succinic acid,isopropanol
2306.0,O=C(O)/C=C/C(=O)O,CC(C)O,mol_2306_solute_opt,mol_2306_solvent_opt,50,39,279.0,-0.8338890336544202,Fumaric acid,isopropanol
2307.0,Cn1[nH]c(=O)c(=O)[nH]c1=S,CC(C)O,mol_2307_solute_opt,mol_2307_solvent_opt,50,42,293.11,-1.1357462523413695,Thiotriazinone,isopropanol
2308.0,C[C@H](CS)C(=O)N1CCC[C@H]1C(=O)O,CC(C)O,mol_2308_solute_opt,mol_2308_solvent_opt,50,34,278.15,-0.3648355170004334,Captopril,isopropanol
2310.0,O=C(O)CCCCCCCCC(=O)O,CC(C)O,mol_2310_solute_opt,mol_2310_solvent_opt,50,38,294.33,-0.7714192024536443,Sebacic acid,isopropanol
2311.0,Nc1ccc(S(=O)(=O)Nc2ncccn2)cc1,CC(C)O,mol_2311_solute_opt,mol_2311_solvent_opt,50,36,294.15,-3.06952821803469,Sulfadiazine,isopropanol
2312.0,CO/N=C(\C(=O)Sc1nc2ccccc2s1)c1csc(N)n1,CC(C)O,mol_2312_solute_opt,mol_2312_solvent_opt,50,37,277.91,-2.8099862666132776,"(α,Z)-2-Amino-α-(methoxyimino)-4-thiazole-ethanethioic Acid S-2-Benzothiazolyl Ester",isopropanol
2313.0,OC[C@H]1O[C@H](O[C@]2(CCl)O[C@H](CCl)[C@@H](O)[C@@H]2O)[C@H](O)[C@@H](O)[C@H]1Cl,CC(C)O,mol_2313_solute_opt,mol_2313_solvent_opt,50,35,283.15,-1.6934996555541917,Sucralose,isopropanol
2314.0,C(=N/Nc1ccccc1)\c1ccc[nH]1,O,mol_2314_solute_opt,mol_2314_solvent_opt,50,13,298.15,-4.489019458114034,Pyrrole-2-carboxaldehyde phenylhydrazone,water
2315.0,C(=N/Nc1ccccc1)\c1ccco1,O,mol_2315_solute_opt,mol_2315_solvent_opt,50,11,298.15,-4.498762457810566,Furan-2-carboxaldehyde phenylhydrazone,water
2316.0,C(=N/Nc1ccccc1)\c1cccs1,O,mol_2316_solute_opt,mol_2316_solvent_opt,50,11,298.15,-4.541749745381413,Thiophene-2-carboxaldehyde phenylhydrazone,water
2317.0,O=[N+]([O-])c1ccc(N/N=C/c2ccc[nH]2)c([N+](=O)[O-])c1,O,mol_2317_solute_opt,mol_2317_solvent_opt,50,17,298.15,-6.052797339024129,"Pyrrole-2-carboxaldehyde 2,4-dinitrophenylhydrazone",water
2318.0,O=[N+]([O-])c1ccc(N/N=C/c2ccc[nH]2)cc1,O,mol_2318_solute_opt,mol_2318_solvent_opt,50,17,298.15,-5.018871150367018,Pyrrole-2-carboxaldehyde 4-nitrophenylhydrazone,water
2319.0,O=[N+]([O-])c1ccc(N/N=C/c2ccco2)c([N+](=O)[O-])c1,O,mol_2319_solute_opt,mol_2319_solvent_opt,50,16,298.15,-6.110789286870404,"Furan-2-carboxaldehyde 2,4-dinitrophenylhydrazone",water
2320.0,O=[N+]([O-])c1ccc(N/N=C/c2ccco2)cc1,O,mol_2320_solute_opt,mol_2320_solvent_opt,50,16,298.15,-5.021388807022559,Furan-2-carboxaldehyde 4-nitrophenylhydrazone,water
2321.0,O=[N+]([O-])c1ccc(N/N=C/c2cccs2)c([N+](=O)[O-])c1,O,mol_2321_solute_opt,mol_2321_solvent_opt,50,16,298.15,-6.411819285574447,"Thiophene-2-carboxaldehyde 2,4-dinitrophenylhydrazone",water
2322.0,O=[N+]([O-])c1ccc(N/N=C/c2cccs2)cc1,O,mol_2322_solute_opt,mol_2322_solvent_opt,50,16,298.15,-5.031607973941424,Thiophene-2-carboxaldehyde 4-nitrophenylhydrazone,water
2323.0,CN1C(C(=O)Nc2ccccn2)=C(O)c2sc(Cl)cc2S1(=O)=O,O,mol_2323_solute_opt,mol_2323_solvent_opt,50,12,298.15,-3.779794771023703,Lornoxicam,water
2324.0,C=C(CC(=O)O)C(=O)O,O,mol_2324_solute_opt,mol_2324_solvent_opt,50,21,278.15,0.7184571786385131,Itaconic acid,water
2325.0,CC(C)=CCOc1c2ccoc2cc2oc(=O)ccc12,O,mol_2325_solute_opt,mol_2325_solvent_opt,50,13,288.2,-4.475175983884266,Isoimperatorin,water
2326.0,O=C(O)CCC(=O)O,O,mol_2326_solute_opt,mol_2326_solvent_opt,50,26,278.15,-0.6628856285605228,Succinic acid,water
2327.0,CC(=O)C1=C(O)C=C2Oc3c(C(C)=O)c(O)c(C)c(O)c3[C@]2(C)C1=O,O,mol_2327_solute_opt,mol_2327_solvent_opt,50,7,288.15,-4.806701092177959,(+)-usnic acid,water
2328.0,COC(=O)NCCCCCCNC(=O)OC,O,mol_2328_solute_opt,mol_2328_solvent_opt,50,9,298.15,-2.463798757927416,Hexamethylene bis(methylcarbamate),water
2329.0,CC(=O)N1CCN(c2ccc(OC[C@H]3CO[C@](Cn4ccnc4)(c4ccc(Cl)cc4Cl)O3)cc2)CC1,O,mol_2329_solute_opt,mol_2329_solvent_opt,50,9,298.2,-4.655317366562111,Ketoconazole,water
2330.0,O=C1C[C@@H](c2ccc(O)cc2)Oc2cc(O)cc(O)c21,O,mol_2330_solute_opt,mol_2330_solvent_opt,50,18,298.15,-4.256916894334066,Naringenin,water
2331.0,Cc1cc(=O)c(C(=O)N[C@@H](C(=O)N[C@@H]2C(=O)N3C(C(=O)O)=C(CSc4nnnn4C)CS[C@H]23)c2ccc(O)cc2)c[nH]1,O,mol_2331_solute_opt,mol_2331_solvent_opt,50,8,278.2,-4.6472361810435,Cefpiramide,water
2332.0,CC(=O)CCc1ccc(O)cc1,O,mol_2332_solute_opt,mol_2332_solvent_opt,50,18,283.15,-1.5565773684684363,4-(4-hydroxyphenyl)-2-butanone (raspberry ketone),water
2333.0,CO[C@@]1(NC(=O)CSCC#N)C(=O)N2C(C(=O)O)=C(CSc3nnnn3C)CS[C@@H]21,O,mol_2333_solute_opt,mol_2333_solvent_opt,50,12,278.15,-3.0605714935720383,Cefmetazole acid,water
2334.0,NC(=O)c1c(F)c(F)c(F)c(F)c1F,O,mol_2334_solute_opt,mol_2334_solvent_opt,50,21,291.8,-2.000820162178125,"2,3,4,5,6-Pentafluorobenzamide",water
2335.0,O=c1[nH]c(=O)n([C@H]2C[C@H](O)[C@@H](CO)O2)cc1I,O,mol_2335_solute_opt,mol_2335_solvent_opt,50,17,302.2,-2.1441336011566468,5-iodo-2′-deoxyuridine,water
2336.0,CC(C)CC(N)C(=O)O,O,mol_2336_solute_opt,mol_2336_solvent_opt,50,11,278.15,-1.2137766234591596,DL-leucine,water
2337.0,CC(O)C(N)C(=O)O,O,mol_2337_solute_opt,mol_2337_solvent_opt,50,21,278.15,0.0530473715252944,DL-threonine,water
2338.0,CCC(C)C(N)C(=O)O,O,mol_2338_solute_opt,mol_2338_solvent_opt,50,13,278.15,-0.856620191175229,DL-Isoleucine,water
2339.0,NC(Cc1ccc(O)cc1)C(=O)O,O,mol_2339_solute_opt,mol_2339_solvent_opt,50,17,278.15,-2.893909470582932,DL-tyrosine,water
2340.0,CC[C@H](C)[C@H]1O[C@]2(CC[C@@H]1C)C[C@@H]1C[C@@H](C/C=C(\C)[C@@H](O[C@H]3C[C@H](OC)[C@@H](O[C@H]4C[C@H](OC)[C@@H](O)[C@H](C)O4)[C@H](C)O3)[C@@H](C)/C=C/C=C3\CO[C@@H]4[C@H](O)C(C)=C[C@@H](C(=O)O1)[C@]34O)O2,O,mol_2340_solute_opt,mol_2340_solvent_opt,50,5,293.2,-3.548862132164303,Ivermectin,water
2341.0,O=[N+]([O-])c1ccn([N+](=O)[O-])n1,O,mol_2341_solute_opt,mol_2341_solvent_opt,50,30,278.15,-1.913129059368788,"1,3-dinitropyrazole",water
2342.0,Nc1ccc(O)c(C(=O)O)c1,O,mol_2342_solute_opt,mol_2342_solvent_opt,50,20,293.2,-2.1772011586571214,Mesalazine,water
2343.0,O=C(O)/C=C\C(=O)O,O,mol_2343_solute_opt,mol_2343_solvent_opt,50,25,278.15,0.6025565997614509,Maleic acid,water
2344.0,O=C(O)C(=O)O,O,mol_2344_solute_opt,mol_2344_solvent_opt,50,34,278.15,-0.2859437887446005,Oxalic acid,water
2345.0,O=C(O)C(O)C(O)C(=O)O,O,mol_2345_solute_opt,mol_2345_solvent_opt,50,18,278.15,0.883557383182355,Tartaric acid,water
2346.0,O=C(O)CC(=O)O,O,mol_2346_solute_opt,mol_2346_solvent_opt,50,30,278.15,1.0514002546300467,Malonic acid,water
2347.0,O=C(O)CC(O)(CC(=O)O)C(=O)O,O,mol_2347_solute_opt,mol_2347_solvent_opt,50,13,278.15,0.7439895100909961,Citric acid,water
2348.0,O=C(O)CC(O)C(=O)O,O,mol_2348_solute_opt,mol_2348_solvent_opt,50,24,278.15,0.8464662408926815,Malic acid,water
2349.0,O=C(O)CCCCC(=O)O,O,mol_2349_solute_opt,mol_2349_solvent_opt,50,15,278.15,-1.1652076730446443,Adipic acid,water
2350.0,O=C(O)CCCC(=O)O,O,mol_2350_solute_opt,mol_2350_solvent_opt,50,14,279.15,0.6431434391396713,Glutaric acid,water
2351.0,O=C(O)CCCCCC(=O)O,O,mol_2351_solute_opt,mol_2351_solvent_opt,50,12,279.15,-0.9442908270601555,Pimelic acid,water
2352.0,O=C(O)c1ccccc1C(=O)O,O,mol_2352_solute_opt,mol_2352_solvent_opt,50,14,283.65,-1.8029525417960208,o-phthalic acid,water
2353.0,O=C(O)c1ccccc1O,O,mol_2353_solute_opt,mol_2353_solvent_opt,50,23,283.15,-1.9550823097531904,Salicylic acid,water
2354.0,O=C(O)c1ccco1,O,mol_2354_solute_opt,mol_2354_solvent_opt,50,19,279.15,-0.6399237835667616,2-furancarboxylic acid,water
2355.0,O=C1O[C@H]([C@@H](O)CO)C(O)=C1O,O,mol_2355_solute_opt,mol_2355_solvent_opt,50,17,280.15,0.0527947915606012,Vitamin C,water
2356.0,CC(=O)CCC(=O)O,O,mol_2356_solute_opt,mol_2356_solvent_opt,50,25,280.15,1.0869568853983709,Levulinic acid,water
2357.0,O=C(O)CCCCCCC(=O)O,O,mol_2357_solute_opt,mol_2357_solvent_opt,50,11,280.15,-2.275632849391064,Suberic acid,water
2358.0,O=C(O)CCCCCCCC(=O)O,O,mol_2358_solute_opt,mol_2358_solvent_opt,50,8,280.15,-2.4818654552387724,Azelaic acid,water