pair_id,SMILES_Solute,SMILES_Solvent,Solute_name,Solvent_name,Total_conformers,Filtered_conformers,Temperature_K,LogS,Compound_Name,Solvent
2772.0,O=C(O)c1cccnc1Cl,O,mol_2772_solute_opt,mol_2772_solvent_opt,50,28,273.15,-2.2935925794349075,2-chloronicotinic acid,water
2773.0,C[C@]12CCC3=C4CCC(=O)C=C4CC[C@H]3[C@@H]1CC[C@@]2(O)CC#N,O,mol_2773_solute_opt,mol_2773_solvent_opt,50,8,273.15,-3.4752440705311103,Dienogest,water
2774.0,C[C@H](N)C(=O)O,O,mol_2774_solute_opt,mol_2774_solvent_opt,50,19,283.15,0.2016961349883894,L-alanine,water
2775.0,Nc1c(Cl)cc([N+](=O)[O-])cc1Cl,O,mol_2775_solute_opt,mol_2775_solvent_opt,50,31,278.15,-3.981488629750408,"2,6-dichloro-4-nitroaniline",water
2776.0,O=C(O)[C@@H]1CCCN1,O,mol_2776_solute_opt,mol_2776_solvent_opt,50,17,283.15,1.1076442007428615,L-proline,water
2777.0,NC(N)=NC(N)=NCCc1ccccc1,O,mol_2777_solute_opt,mol_2777_solvent_opt,50,11,278.15,-1.6658639117753191,Phenformin,water
2778.0,Cc1cc(=O)oc2cc(N)ccc12,O,mol_2778_solute_opt,mol_2778_solvent_opt,50,20,278.15,-3.2246383497771607,7-amino-4-methylcoumarin,water
2779.0,Nc1ccc(Cl)cc1[N+](=O)[O-],O,mol_2779_solute_opt,mol_2779_solvent_opt,50,35,278.15,-3.3525538341267844,4-chloro-2-nitroaniline,water
2780.0,C(=Cc1ccc(-c2nc3ccccc3o2)cc1)c1ccc(-c2nc3ccccc3o2)cc1,O,mol_2780_solute_opt,mol_2780_solvent_opt,50,15,323.15,-5.146916330689207,"2,2′-(1,2-ethenediyldi-4,1-phenylene) bis-benzoxazole",water
2781.0,O=Cc1ccc(O)c(Br)c1,O,mol_2781_solute_opt,mol_2781_solvent_opt,50,25,278.15,-2.4828599112908547,3-bromo-4-hydroxybenzaldehyde,water
2782.0,Cc1c(Br)cccc1C(=O)O,O,mol_2782_solute_opt,mol_2782_solvent_opt,50,18,278.15,-1.0996897724461274,3-bromo-2-methylbenzoic acid,water
2783.0,CC1(C)NC(=O)NC1=O,O,mol_2783_solute_opt,mol_2783_solvent_opt,50,26,283.15,-0.0372529373239789,"5,5-dimethylhydantoin",water
2784.0,CC(=O)NC1(C)CCC2CC1C(C)=NC2(C)C,O,mol_2784_solute_opt,mol_2784_solvent_opt,50,8,298.15,-1.17830301634849,"8-acetamide-2,4,4,8-tetramethyl-3-azabicyclo[3.3.1]non-2-ene perchlorate",water
2785.0,N[C@@H](C(=O)O)c1ccc(O)cc1,O,mol_2785_solute_opt,mol_2785_solvent_opt,50,23,278.27,-0.9980595726310092,D-(p-hydroxy)phenylglycine,water
2786.0,OC[C@@H](O)C(O)[C@@H](O)CO,O,mol_2786_solute_opt,mol_2786_solvent_opt,50,21,293.28,1.0295014129005982,Xylitol,water
2787.0,COc1cc(NS(=O)(=O)c2ccc(N)cc2)nc(OC)n1,O,mol_2787_solute_opt,mol_2787_solvent_opt,50,13,298.15,-3.7700606409343074,Sulfadimethoxine,water
2788.0,COc1cc(NS(=O)(=O)c2ccc(N)cc2)ncn1,O,mol_2788_solute_opt,mol_2788_solvent_opt,50,16,298.15,-3.66786011164197,Sulfamonomethoxine,water
2789.0,COc1cnc(NS(=O)(=O)c2ccc(N)cc2)nc1,O,mol_2789_solute_opt,mol_2789_solvent_opt,50,16,298.15,-3.515133236042036,Sulfamethoxydiazine,water
2790.0,Cc1cc(NS(=O)(=O)c2ccc(N)cc2)no1,O,mol_2790_solute_opt,mol_2790_solvent_opt,50,13,298.15,-2.8258636658696896,Sulfamethoxazole,water
2791.0,O=C(O)c1cccc([N+](=O)[O-])c1C(=O)O,O,mol_2791_solute_opt,mol_2791_solvent_opt,50,16,283.18,-1.192597800596935,3-nitrophthalic acid,water
2792.0,CN/C(=C\[N+](=O)[O-])NCCSCc1csc(CN(C)C)n1,O,mol_2792_solute_opt,mol_2792_solvent_opt,50,13,273.15,0.1084038709359018,Nizatidine,water
2793.0,C[C@@]12C[C@H]3OC(=O)[C@@H]1CO[C@]14O[C@@]5([C@H]2C1=O)[C@@]3(C)OC(=O)[C@@]5(O)CC[C@H]1[C@H]4C[C@@H](O)[C@@]2(O)CC=CC(=O)[C@]12C,O,mol_2793_solute_opt,mol_2793_solvent_opt,50,9,283.2,-1.1748519146080028,Physalin D,water
2794.0,O=C(O)CCP(=O)(O)c1ccccc1,O,mol_2794_solute_opt,mol_2794_solvent_opt,50,9,298.25,-1.0057366608950684,2-carboxyethylphenylphosphinic acid,water
2795.0,O=P(O)(CO)c1ccccc1,O,mol_2795_solute_opt,mol_2795_solvent_opt,50,15,307.45,-0.2581737966801654,Hydroxymethylphenylphosphinic acid ,water
2796.0,O=P1(Oc2ccccc2)OCC2(CO1)COP(=O)(Oc1ccccc1)OC2,O,mol_2796_solute_opt,mol_2796_solvent_opt,50,12,293.18,-2.110241914082404,"3,9-diphenoxy-2,4,8,10-tetraoxa-3,9-diphosphaspiro-[5.5]-undecane-3,9-dioxide",water
2797.0,N[C@@H](Cc1ccc([N+](=O)[O-])cc1[N+](=O)[O-])C(=O)O,O,mol_2797_solute_opt,mol_2797_solvent_opt,50,14,273.15,-5.323254531722834,"2,4-dinitro-L-phenylalanine",water
2798.0,CO/N=C(/C(=O)N[C@@H]1C(=O)N2C(C(=O)O)=C(COC(N)=O)CS[C@H]12)c1ccco1,O,mol_2798_solute_opt,mol_2798_solvent_opt,50,14,278.5,-2.776539595220083,Cefuroxime acid,water
2799.0,COC(=O)/C=C/C(=O)OC,O,mol_2799_solute_opt,mol_2799_solvent_opt,50,18,300.55,-2.289940013816512,Dimethyl fumarate,water
2800.0,CP(=O)(O)c1ccccc1,O,mol_2800_solute_opt,mol_2800_solvent_opt,50,11,298.15,-0.062656439229039,Methylphenylphosphinic acid,water
2801.0,O=[PH](O)c1ccccc1,O,mol_2801_solute_opt,mol_2801_solvent_opt,50,19,297.79,-0.2754310023871654,Phenylphosphinic acid,water
2802.0,COc1cc(CNC(=O)CCCCCCC(C)C)ccc1O,O,mol_2802_solute_opt,mol_2802_solvent_opt,50,6,324.67,-2.5805995815540443,Dihydrocapsaicin,water
2803.0,O=[N+]([O-])c1cc([N+](=O)[O-])c(O)c(Cl)c1O,O,mol_2803_solute_opt,mol_2803_solvent_opt,50,23,298.85,-2.714125290366609,"2-chloro-4,6-dinitroresorcinol",water
2804.0,O=C(CCc1ccc(O)cc1)c1c(O)cc(O)cc1O,O,mol_2804_solute_opt,mol_2804_solvent_opt,50,17,288.2,-3.716415956449785,Phloretin,water
2805.0,C[C@H]1[C@H](C)CC[C@]2(C(=O)O[C@@H]3O[C@H](CO[C@@H]4O[C@H](CO)[C@@H](O[C@@H]5O[C@@H](C)[C@H](O)[C@@H](O)[C@H]5O)[C@H](O)[C@H]4O)[C@@H](O)[C@H](O)[C@H]3O)CC[C@]3(C)C(=CC[C@@H]4[C@@]5(C)C[C@@H](O)[C@H](O)[C@@](C)(CO)[C@@H]5CC[C@]43C)[C@H]12,O,mol_2805_solute_opt,mol_2805_solvent_opt,50,7,298.15,-3.978162902515637,Asiaticoside,water
2806.0,CO/N=C(\C(=O)O)c1csc(N)n1,O,mol_2806_solute_opt,mol_2806_solvent_opt,50,17,283.67,-1.7035265852142143,(Z)-2-(2-aminothiazol-4-yl)-2-methoxyiminoacetic acid,water
2807.0,c1ccc2c(c1)Nc1ccccc1S2,O,mol_2807_solute_opt,mol_2807_solvent_opt,50,16,298.2,-5.064252865503494,Phenothiazine,water
2808.0,C[N+](C)(C)CC(=O)[O-],O,mol_2808_solute_opt,mol_2808_solvent_opt,50,15,283.15,1.098807830768465,Betaine,water
2809.0,O=C1CN=C(c2ccccc2Cl)c2cc([N+](=O)[O-])ccc2N1,O,mol_2809_solute_opt,mol_2809_solvent_opt,50,15,298.2,-4.978623848139112,Clonazepam,water
2810.0,CC(=O)N1CN(C(C)=O)CN(C(C)=O)C1,O,mol_2810_solute_opt,mol_2810_solvent_opt,50,19,298.0,-0.6179611023948922,"1,3,5-Triacetyl-hexahydro-s-triazine",water
2811.0,O=[N+]([O-])N1CN([N+](=O)[O-])CN([N+](=O)[O-])CN([N+](=O)[O-])C1,O,mol_2811_solute_opt,mol_2811_solvent_opt,50,14,298.0,-0.5090587943991461,Cyclotetramethylenetetranitramine (HMX),water
2812.0,O=C(O)[C@@H](O)CCc1ccccc1,O,mol_2812_solute_opt,mol_2812_solvent_opt,50,15,283.2,-1.402987819659326,(S)-2-hydroxy-4-phenylbutyric acid,water
2813.0,O=C(O)[C@@H]1Cc2ccccc2N1,O,mol_2813_solute_opt,mol_2813_solvent_opt,50,17,283.15,-1.7670800745457624,(S)-indoline-2-carboxylic acid,water
2814.0,CC1=C(C(=O)O)N2C(=O)[C@@H](NC(=O)[C@H](N)C3=CCC=CC3)[C@H]2SC1,O,mol_2814_solute_opt,mol_2814_solvent_opt,50,10,283.15,-1.198364344885264,Cefradine,water
2815.0,CC1(C)COP(=O)(C(C)(C)O)OC1,O,mol_2815_solute_opt,mol_2815_solvent_opt,50,12,283.55,-0.3995804659350509,"1,3,2-dioxaphosphorinane-2-methanol-α,α-5,5-tetramethyl 2-oxide",water
2816.0,Cc1cccc(Nc2ccccc2C(=O)O)c1C,O,mol_2816_solute_opt,mol_2816_solvent_opt,50,8,313.0,-3.2601765546846897,Mefenamic acid,water
2817.0,O=C(O)c1cc2ccccc2[nH]1,O,mol_2817_solute_opt,mol_2817_solvent_opt,50,14,293.15,-2.4245130862970545,Indole-2-carboxylic acid,water
2818.0,O=c1c(-c2ccc(O)cc2)coc2cc(O)cc(O)c12,O,mol_2818_solute_opt,mol_2818_solvent_opt,50,13,288.2,-5.58118364844652,Genistein,water
2819.0,OC[C@H]1O[C@H](O[C@H]2O[C@H](CO)[C@@H](O)[C@H](O)[C@H]2O)[C@H](O)[C@@H](O)[C@@H]1O,O,mol_2819_solute_opt,mol_2819_solvent_opt,50,12,288.15,0.2960155906698488,Trehalose,water
2820.0,COc1ccc([C@@H]2CC(=O)c3c(O)cc(O[C@@H]4O[C@H](CO[C@@H]5O[C@@H](C)[C@H](O)[C@@H](O)[C@H]5O)[C@@H](O)[C@H](O)[C@H]4O)cc3O2)cc1O,O,mol_2820_solute_opt,mol_2820_solvent_opt,50,7,298.15,-5.089599930039296,Hesperidin,water
2821.0,CCN1CCN(c2cc3c(cc2F)c(=O)c(C(=O)O)cn3C2CC2)CC1,O,mol_2821_solute_opt,mol_2821_solvent_opt,50,7,303.15,-3.1968247336096827,Enrofloxacin,water
2822.0,O=C(NNC(=S)Nc1ccc(Cl)cc1)c1ccncc1,O,mol_2822_solute_opt,mol_2822_solvent_opt,50,14,298.15,-4.543426561004518,N-(4-chlorophenyl)-2-(pyridin-4-ylcarbonyl)hydrazinecarbothioamide,water
2823.0,COC(=O)[C@H](Cc1ccccc1)NC(=O)[C@@H](N)CC(=O)O,O,mol_2823_solute_opt,mol_2823_solvent_opt,50,8,278.15,-1.7270982149631136,Aspartame,water
2824.0,Oc1cccc(/C=N\NC(=S)NC2CCCCC2)c1,O,mol_2824_solute_opt,mol_2824_solvent_opt,50,9,298.15,-4.665852552227385,(2Z)-N-cyclohexyl-2-(3-hydroxybenzylidine) hydrazine carbothioamide,water
2825.0,O=[N+]([O-])c1cccc(Cl)c1Cl,O,mol_2825_solute_opt,mol_2825_solvent_opt,50,34,278.15,-4.052069826507371,"2,3-dichloronitrobenzene",water
2826.0,O=C1N2CN3C(=O)N4CN5C(=O)N6CN7C(=O)N8CN9C(=O)N%10CN%11C(=O)N%12CN1C1C2N2CN%13C(=O)N(CN%14C(=O)N(CN%15C(=O)N(CN%16C(=O)N(CN%17C(=O)N(CN1C2=O)C%12C%11%17)C%10C9%16)C8C7%15)C6C5%14)C4C3%13,O,mol_2826_solute_opt,mol_2826_solvent_opt,50,6,293.15,-0.8923616807909643,Hydroxyl cucurbit[6]uril,water
2827.0,NC(CO)(CO)CO,O,mol_2827_solute_opt,mol_2827_solvent_opt,50,16,293.2,0.7008445278847817,Tris(hydroxymethyl)aminomethane,water
2828.0,O=C(O)CCCC[C@@H]1SC[C@@H]2NC(=O)N[C@@H]21,O,mol_2828_solute_opt,mol_2828_solvent_opt,50,15,298.15,-3.5605587814464945,Biotin,water
2829.0,COC(=O)[C@H]1[C@H]2C[C@@H]3c4[nH]c5cc(OC)ccc5c4CCN3C[C@H]2C[C@@H](OC(=O)c2cc(OC)c(OC)c(OC)c2)[C@@H]1OC,O,mol_2829_solute_opt,mol_2829_solvent_opt,50,8,298.15,-4.269697677020614,Reserpine,water
2830.0,CC(=O)Nc1ccncc1NS(=O)(=O)c1ccc([N+](=O)[O-])cc1,O,mol_2830_solute_opt,mol_2830_solvent_opt,50,14,298.0,-3.336691152835218,4-nitro-N-(2-NHCOCH3-4-pyridinyl)-benzenesulfonamide,water
2831.0,CCN(CC)S(=O)(=O)c1ccc(N)cc1,O,mol_2831_solute_opt,mol_2831_solvent_opt,50,9,298.0,-2.6268933521347724,"4-amino-N,N-diethyl-benzene-sulfonamide",water
2832.0,CCOC(=O)c1ccc(NS(=O)(=O)c2ccccc2)nc1,O,mol_2832_solute_opt,mol_2832_solvent_opt,50,13,298.0,-4.163917548242381,N-(4-COOC2H3-2-pyridinyl)-benzenesulfonamide,water
2833.0,CCOc1ccc(NS(=O)(=O)c2ccc([N+](=O)[O-])cc2)cc1,O,mol_2833_solute_opt,mol_2833_solvent_opt,50,12,298.0,-4.7245852448431656,4-nitro-N-(4-ethoxyphenyl)-benzene-sulfonamide,water
2834.0,CCc1ccc(NS(=O)(=O)c2ccc(N)cc2)cc1,O,mol_2834_solute_opt,mol_2834_solvent_opt,50,12,298.0,-4.550621768537401,4-amino-N-(4-ethylphenyl)-benzene-sulfonamide,water
2835.0,CN(C)S(=O)(=O)c1ccc(N)cc1,O,mol_2835_solute_opt,mol_2835_solvent_opt,50,13,298.0,-2.750820798448611,"4-amino-N,N-dimethyl-benzene-sulfonamide",water
2836.0,CNS(=O)(=O)c1ccc(N)cc1,O,mol_2836_solute_opt,mol_2836_solvent_opt,50,16,298.0,-1.244054993378756,4-amino-N-methyl-benzene-sulfonamide,water
2837.0,COc1c(Cl)cccc1NS(=O)(=O)c1ccc(N)cc1,O,mol_2837_solute_opt,mol_2837_solvent_opt,50,13,298.0,-4.156968679601152,4-amino-N-(2-methoxy-3-chlorophenyl)-benzenesulfonamide,water
2838.0,COc1ccc(NS(=O)(=O)c2ccc(N)cc2)cc1,O,mol_2838_solute_opt,mol_2838_solvent_opt,50,10,298.0,-4.1367652674551625,4-amino-N-(4-methoxyphenyl)-benzenesulfonamide,water
2839.0,Cc1ccc(NS(=O)(=O)c2ccc([N+](=O)[O-])cc2)nc1,O,mol_2839_solute_opt,mol_2839_solvent_opt,50,16,298.0,-4.204260837693646,N-(5-methyl-2-pyridinyl)-4-nitro-benzenesulfonamide,water
2840.0,Nc1ccc(S(=O)(=O)N(c2ccccc2)c2ccccc2)cc1,O,mol_2840_solute_opt,mol_2840_solvent_opt,50,8,298.0,-4.572494200087115,"4-amino-N,N-diphenyl-benzene-sulfonamide",water
2841.0,Nc1ccc(S(=O)(=O)Nc2ccc(I)cc2)cc1,O,mol_2841_solute_opt,mol_2841_solvent_opt,50,14,298.0,-4.521740635975664,4-amino-N-(4-iodophenyl)-benzene-sulfonamide,water
2842.0,Nc1ccc(S(=O)(=O)Nc2ccc([N+](=O)[O-])cc2Br)cc1,O,mol_2842_solute_opt,mol_2842_solvent_opt,50,19,298.0,-4.778773145613605,4-amino-N-(2-bromo-4-nitrophenyl)-benzenesulfonamide,water
2843.0,Nc1ccc(S(=O)(=O)Nc2cccc(Cl)c2Cl)cc1,O,mol_2843_solute_opt,mol_2843_solvent_opt,50,15,298.0,-4.736201544040279,"4-amino-N-(2,3-dichlorophenyl)-benzenesulfonamide",water
2844.0,O=S(=O)(Nc1ccc(Br)cc1Br)c1ccccc1,O,mol_2844_solute_opt,mol_2844_solvent_opt,50,14,298.0,-5.10505136587723,"N-(2,4-dibromophenyl)-benzene-sulfonamide",water
2845.0,O=S(=O)(Nc1ccc(Cl)cc1)c1ccccc1,O,mol_2845_solute_opt,mol_2845_solvent_opt,50,12,298.0,-4.032029760588902,N-(4-chlorophenyl)-benzene-sulfonamide,water
2846.0,O=S(=O)(Nc1cccc(Cl)c1Cl)c1ccccc1,O,mol_2846_solute_opt,mol_2846_solvent_opt,50,13,298.0,-4.646679431648042,"N-(2,3-dichlorophenyl)-benzene-sulfonamide",water
2847.0,O=S(=O)(Nc1ccccc1)c1ccccc1,O,mol_2847_solute_opt,mol_2847_solvent_opt,50,13,298.0,-3.328428394510351,N-phenyl-benzene-sulfonamide,water
2848.0,O=S(=O)(Nc1ccccc1Cl)c1ccccc1,O,mol_2848_solute_opt,mol_2848_solvent_opt,50,14,298.0,-4.318319618079372,N-(2-chlorophenyl)-benzene-sulfonamide,water
2849.0,O=S(=O)(Nc1cccnc1Cl)c1ccccc1,O,mol_2849_solute_opt,mol_2849_solvent_opt,50,14,298.0,-3.7631838229107673,N-(2-chloro-3-pyridinyl)-benzene-sulfonamide,water
2850.0,O=S(=O)(Nc1ncccc1Cl)c1ccccc1,O,mol_2850_solute_opt,mol_2850_solvent_opt,50,14,298.0,-3.189148828908782,N-(3-chloro-2-pyridinyl)-benzene-sulfonamide,water
2851.0,O=[N+]([O-])c1ccc(S(=O)(=O)Nc2nccs2)cc1,O,mol_2851_solute_opt,mol_2851_solvent_opt,50,23,298.0,-3.630997567485521,4-nitro-N-2-thiazolyl-benzene-sulfonamide,water
2852.0,O=[N+]([O-])c1ccccc1NS(=O)(=O)c1ccccc1,O,mol_2852_solute_opt,mol_2852_solvent_opt,50,13,298.0,-4.006918996576347,N-(2-nitrophenyl)-benzene-sulfonamide,water
2853.0,CC1(C)COC(=O)[C@@H]1O,O,mol_2853_solute_opt,mol_2853_solvent_opt,50,20,288.15,0.7548503540066696,D-pantolactone,water
2854.0,O=C1Nc2ccccc2C1=O,O,mol_2854_solute_opt,mol_2854_solvent_opt,50,24,298.15,-2.5459318863234057,Isatin,water
2855.0,CC(C)(O)P1(=O)OCC2(CO1)COP(=O)(C(C)(C)O)OC2,O,mol_2855_solute_opt,mol_2855_solvent_opt,50,12,293.13,-0.5027633234170806,"2,4,8,10-tetraoxa-3,9-diphosphaspiro[5.5]undecane-3,9-dimethanol, α,α,α‘,α‘-tetramethyl-3,9-dioxide",water
2856.0,CCCCCC1CCC(=O)O1,O,mol_2856_solute_opt,mol_2856_solvent_opt,50,11,323.15,-1.4032144383728986,γ-Nonalactone,water
2857.0,CCCCCC=O,O,mol_2857_solute_opt,mol_2857_solvent_opt,50,17,353.15,-1.4962176159289975,Hexanal,water
2858.0,O=CCc1ccccc1,O,mol_2858_solute_opt,mol_2858_solvent_opt,50,25,323.15,-1.004804799881127,Phenylethanal,water
2859.0,O=Cc1ccccc1,O,mol_2859_solute_opt,mol_2859_solvent_opt,50,27,353.15,-0.8941236914474878,Benzaldehyde,water
2860.0,O=Cc1ccco1,O,mol_2860_solute_opt,mol_2860_solvent_opt,50,21,353.15,0.1914299256915849,2-Furfural,water
2861.0,OCCc1ccccc1,O,mol_2861_solute_opt,mol_2861_solvent_opt,50,16,333.15,-0.5532016513478571,2-Phenylethanol,water
2862.0,O=C(O)Cn1cnnn1,O,mol_2862_solute_opt,mol_2862_solvent_opt,50,22,283.17,-0.388583860532272,1H-Tetrazole-1-acetic Acid,water
2863.0,CCC[C@@H]1C[C@@H](C(=O)N[C@@H]([C@H]2O[C@H](SC)[C@H](OP(=O)(O)O)[C@@H](O)[C@H]2O)[C@H](C)Cl)N(C)C1,O,mol_2863_solute_opt,mol_2863_solvent_opt,50,6,278.15,1.0741776889194543,Clindamycin phosphate,water
2864.0,O=C(O)c1ccc([N+](=O)[O-])cc1C(=O)O,O,mol_2864_solute_opt,mol_2864_solvent_opt,50,20,285.15,0.7229782588157807,4-nitrophthalic acid,water
2865.0,CC1(C)S[C@@H]2[C@H](N)C(=O)N2[C@H]1C(=O)O,O,mol_2865_solute_opt,mol_2865_solvent_opt,50,17,274.15,-2.133535416910126,6-aminopenicillanic acid,water
2866.0,C1CN2CN3CCN(CN1C3)C2,O,mol_2866_solute_opt,mol_2866_solvent_opt,50,12,275.0,0.7448267146471955,"1,3,6,8-tetraazatricyclo[4.4.1.13,8]dodecane (tatd)",water
2867.0,O=P1(c2cc(O)ccc2O)Oc2ccccc2-c2ccccc21,O,mol_2867_solute_opt,mol_2867_solvent_opt,50,11,303.0,-2.115209578795954,"2-(6-oxido-6H-dibenz[c,e][1,2]oxaphosphorin-6-yl)-1,4-dihydroxy phenylene",water
2868.0,O=C(O)CCCCCCCCC(=O)O,O,mol_2868_solute_opt,mol_2868_solvent_opt,50,7,321.95,-2.701662663200668,Sebacic acid,water
2869.0,CC1COc2c(N3CCN(C)CC3)c(F)cc3c(=O)c(C(=O)O)cn1c23,O,mol_2869_solute_opt,mol_2869_solvent_opt,50,9,293.15,-2.1004071367791166,Ofloxacin,water
2870.0,CCn1cc(C(=O)O)c(=O)c2cc(F)c(N3CCN(C)CC3)cc21,O,mol_2870_solute_opt,mol_2870_solvent_opt,50,9,293.15,-3.55260308910128,Pefloxacin,water
2871.0,CCn1cc(C(=O)O)c(=O)c2cc(F)c(N3CCNC(C)C3)c(F)c21,O,mol_2871_solute_opt,mol_2871_solvent_opt,50,9,293.15,-2.7144437489755857,Lomefloxacin,water
2872.0,CCn1cc(C(=O)O)c(=O)c2cc(F)c(N3CCNCC3)cc21,O,mol_2872_solute_opt,mol_2872_solvent_opt,50,11,293.15,-2.9506224173958726,Norfloxacin,water
2873.0,CCn1cc(C(=O)O)c(=O)c2cnc(N3CCNCC3)nc21,O,mol_2873_solute_opt,mol_2873_solvent_opt,50,11,293.15,-2.990407966871872,Pipemidic acid,water
2874.0,O=C(O)c1cn(C2CC2)c2cc(N3CCNCC3)c(F)cc2c1=O,O,mol_2874_solute_opt,mol_2874_solvent_opt,50,9,293.15,-3.702042792669761,Ciprofloxacin,water
2875.0,O=c1[nH]cc(Br)c(=O)[nH]1,O,mol_2875_solute_opt,mol_2875_solvent_opt,50,26,298.15,-1.8222302804271533,5-bromouracil,water
2876.0,O=c1[nH]cc(C(F)(F)F)c(=O)[nH]1,O,mol_2876_solute_opt,mol_2876_solvent_opt,50,27,298.15,-0.8272922125472635,5-(trifluoromethyl)uracil,water
2877.0,O=c1[nH]cc(Cl)c(=O)[nH]1,O,mol_2877_solute_opt,mol_2877_solvent_opt,50,33,298.15,-1.7682328288242084,5-chlorouracil,water
2878.0,O=c1[nH]cc(I)c(=O)[nH]1,O,mol_2878_solute_opt,mol_2878_solvent_opt,50,28,298.15,-1.6850464747593348,5-iodouracil,water
2879.0,O=c1cc(Cl)[nH]c(=O)[nH]1,O,mol_2879_solute_opt,mol_2879_solvent_opt,50,25,298.15,-1.4763380579275802,6-chlorouracil,water
2880.0,O=P(O)(c1ccccc1)c1ccccc1,O,mol_2880_solute_opt,mol_2880_solvent_opt,50,15,303.14,-2.559319519581989,Diphenylphosphinic acid,water
2881.0,COc1cc(C(=O)O)cc(OC)c1O,O,mol_2881_solute_opt,mol_2881_solvent_opt,50,10,293.15,-1.6809918569645363,Syringic acid,water
2882.0,O=C(O)c1ccc(O)c(O)c1,O,mol_2882_solute_opt,mol_2882_solvent_opt,50,26,293.15,-0.9285393687249428,Protocatechuic acid,water
2883.0,CN(C)CCn1[nH]nnc1=S,O,mol_2883_solute_opt,mol_2883_solvent_opt,50,18,293.15,-0.6300908760539745,1-(2-dimethylaminoethyl)-5-mercapto-1H-tetrazole,water
2884.0,O=C(O)c1ccncc1,O,mol_2884_solute_opt,mol_2884_solvent_opt,50,23,290.45,-1.4332063452238408,Isonicotinic acid,water
2885.0,C1N2CN3CN1CN(C2)C3,O,mol_2885_solute_opt,mol_2885_solvent_opt,50,20,303.21,0.777695053856639,Hexamethylenetetramine,water
2886.0,Clc1ccc2c(Cl)ccnc2c1,O,mol_2886_solute_opt,mol_2886_solvent_opt,50,25,298.0,-2.804009097744638,"4,7-dichloroquinoline",water
2887.0,CC(C)Br,O,mol_2887_solute_opt,mol_2887_solvent_opt,50,27,295.25,-1.4879415664386657,2-bromopropane,water
2888.0,NC(N)=S,O,mol_2888_solute_opt,mol_2888_solvent_opt,50,24,290.75,0.1629420882827732,Thiourea,water
2889.0,C[C@@H]1O[C@@H](OC[C@H]2O[C@@H](Oc3c(-c4ccc(O)c(O)c4)oc4cc(O)cc(O)c4c3=O)[C@H](O)[C@@H](O)[C@@H]2O)[C@H](O)[C@H](O)[C@H]1O,O,mol_2889_solute_opt,mol_2889_solvent_opt,50,12,273.2,-3.779925093908016,Rutin,water
2890.0,O=C(O)c1ccc(Cl)cc1C(=O)O,O,mol_2890_solute_opt,mol_2890_solvent_opt,50,14,283.15,0.6847752583960404,4-chlorophthalic acid,water
2891.0,O=C(O)c1cccc(Cl)c1C(=O)O,O,mol_2891_solute_opt,mol_2891_solvent_opt,50,16,283.15,-0.9509159948156224,3-chlorophthalic acid,water
2892.0,CCc1occc(=O)c1O,O,mol_2892_solute_opt,mol_2892_solvent_opt,50,27,293.15,-0.9332800780660296,Ethyl maltol,water
2893.0,O=C(O)/C=C/C(=O)O,O,mol_2893_solute_opt,mol_2893_solvent_opt,50,21,279.0,-2.120169514273825,Fumaric acid,water
2894.0,Cn1[nH]c(=O)c(=O)[nH]c1=S,O,mol_2894_solute_opt,mol_2894_solvent_opt,50,29,293.23,-1.1134474895278277,Thiotriazinone,water
2895.0,CN=C1CN(O)C(c2ccccc2)=c2cc(Cl)ccc2=N1,O,mol_2895_solute_opt,mol_2895_solvent_opt,50,13,303.2,-3.4801687359524123,Chlordiazepoxide,water
2896.0,O=C1Nc2ccc(Cl)cc2C(c2ccccc2Cl)=NC1O,O,mol_2896_solute_opt,mol_2896_solvent_opt,50,14,303.2,-3.781200034505702,Lorazepam,water
2897.0,CP1(=O)OCC2(CO1)COP(C)(=O)OC2,O,mol_2897_solute_opt,mol_2897_solvent_opt,50,15,292.95,0.5105372248247371,"3,9-dimethyl-3,9-dioxide-2,4,8,10-tetraoxa-3,9-diphosphaspiro[5.5]undecane",water
2898.0,Nc1ncnc2c1ncn2[C@@H]1O[C@H](COP(=O)(O)O)[C@@H](O)[C@H]1O,O,mol_2898_solute_opt,mol_2898_solvent_opt,50,12,288.2,-1.8447732135465515,Adenosine 5′-monophosphate,water
2899.0,Oc1cc(O)c2cc1Cc1cc(c(O)cc1O)Cc1cc(c(O)cc1O)Cc1cc(c(O)cc1O)C2,O,mol_2899_solute_opt,mol_2899_solvent_opt,50,10,278.15,-3.747790025362167,Calix[4]resorcinarene,water
2900.0,O=P(c1ccccc1)(c1ccccc1)c1cc(O)ccc1O,O,mol_2900_solute_opt,mol_2900_solvent_opt,50,10,297.16,-2.215740756945177,"(2,5-dihydroxyphenyl)diphenyl phosphine oxide",water
2901.0,CC(N)=O,O,mol_2901_solute_opt,mol_2901_solvent_opt,50,23,278.15,1.394222777111181,Acetamide,water