pair_id,SMILES_Solute,SMILES_Solvent,Solute_name,Solvent_name,Total_conformers,Filtered_conformers,Temperature_K,LogS,Compound_Name,Solvent
4931.0,COc1ccc2[nH]cc(CCNC(C)=O)c2c1,CCCCO,mol_4931_solute_opt,mol_4931_solvent_opt,50,39,278.15,-1.2389810944373494,Melatonin,n-butanol
4932.0,CC(=O)[C@H]1CC[C@H]2[C@@H]3CCC4=CC(=O)CC[C@]4(C)[C@H]3CC[C@]12C,CCCCO,mol_4932_solute_opt,mol_4932_solvent_opt,50,34,278.15,-1.103498834323875,Progesterone,n-butanol
4933.0,CC(C)C(=O)Nc1ccc([N+](=O)[O-])c(C(F)(F)F)c1,CCCCO,mol_4933_solute_opt,mol_4933_solvent_opt,50,39,278.15,-0.2431781345677975,Flutamide,n-butanol
4934.0,O=c1cc(-c2ccccc2)oc2cc(O)cc(O)c12,CCCCO,mol_4934_solute_opt,mol_4934_solvent_opt,50,41,293.2,-2.193168025459446,Chrysin,n-butanol
4935.0,CS(=O)(=O)Nc1ccc([N+](=O)[O-])cc1Oc1ccccc1,CCCCO,mol_4935_solute_opt,mol_4935_solvent_opt,50,41,278.15,-2.8382381544204107,Nimesulide,n-butanol
4936.0,O=c1ccn([C@@H]2O[C@H](CO)[C@@H](O)[C@H]2O)c(=O)[nH]1,CCCCO,mol_4936_solute_opt,mol_4936_solvent_opt,50,37,278.15,-2.266667504307683,Uridine,n-butanol
4937.0,N#CCNC(=O)c1cnccc1C(F)(F)F,CCCCO,mol_4937_solute_opt,mol_4937_solvent_opt,50,36,283.15,-1.481766849347519,Flonicamid,n-butanol
4938.0,Nc1nc(NC2CC2)c2ncn([C@H]3C=C[C@@H](CO)C3)c2n1,CCCCO,mol_4938_solute_opt,mol_4938_solvent_opt,50,31,278.15,-1.0965866633430763,Abacavir,n-butanol
4939.0,NS(=O)(=O)c1ccccc1C(=O)[O-],CCCCO,mol_4939_solute_opt,mol_4939_solvent_opt,50,46,272.15,-1.989155839122232,Methyl 2-sulfamoylbenzoate,n-butanol
4940.0,COc1cc(/C=C/C(=O)CC(=O)/C=C/c2ccc(O)c(OC)c2)ccc1O,CCCCO,mol_4940_solute_opt,mol_4940_solvent_opt,50,35,278.15,-2.2651574099013576,Curcumin,n-butanol
4941.0,O=[N+]([O-])c1cn[nH]c1,CCCCO,mol_4941_solute_opt,mol_4941_solvent_opt,50,46,288.15,-0.0261295021402828,4-nitropyrazole,n-butanol
4942.0,COc1ccc(C=O)cc1O,CCCCO,mol_4942_solute_opt,mol_4942_solvent_opt,50,42,278.15,-0.8711420449200972,Isovanillin,n-butanol
4943.0,CC1(C)O[C@@H]2[C@@H](CO[C@@]3(COS(N)(=O)=O)OC(C)(C)O[C@@H]23)O1,CCCCO,mol_4943_solute_opt,mol_4943_solvent_opt,50,47,278.15,-1.2588060514872428,Topiramate,n-butanol
4944.0,CC(C)[C@H](C)[C@@H](O)[C@H](O)[C@@H](C)[C@H]1CC[C@H]2[C@@H]3COC(=O)[C@H]4C[C@H](O)[C@H](O)C[C@]4(C)[C@H]3CC[C@]12C,CCCCO,mol_4944_solute_opt,mol_4944_solvent_opt,50,31,278.15,-2.2926086932743925,Brassinolide,n-butanol
4945.0,O=C(O)c1cc(=O)[nH]c(=O)[nH]1,CCCCO,mol_4945_solute_opt,mol_4945_solvent_opt,50,39,278.15,-3.78824262745611,Orotic acid,n-butanol
4946.0,Cn1cc[nH]c1=S,CCCCO,mol_4946_solute_opt,mol_4946_solvent_opt,50,41,278.15,-0.6592565053600272,Methimazole,n-butanol
4947.0,CC(=O)Nc1ccc(CC(=O)O)cc1,CCCCO,mol_4947_solute_opt,mol_4947_solvent_opt,50,41,278.15,-1.3504595279602536,Actarit,n-butanol
4948.0,COc1cccc(C(=O)O)c1OC,CCCCO,mol_4948_solute_opt,mol_4948_solvent_opt,50,39,278.15,-0.9867175831074376,"2,3-dimethoxybenzoic acid",n-butanol
4950.0,OCCN1CCN(CCCN2c3ccccc3Sc3ccc(Cl)cc32)CC1,CCCCO,mol_4950_solute_opt,mol_4950_solvent_opt,50,29,278.15,-0.9040131307053494,Perphenazine,n-butanol
4951.0,O=C(O)CCC(=O)c1ccc(-c2ccccc2)cc1,CCCCO,mol_4951_solute_opt,mol_4951_solvent_opt,50,35,278.15,-2.1214856818406185,Fenbufen,n-butanol
4952.0,COc1c2occc2c(OC)c2c(=O)cc(C)oc12,CCCCO,mol_4952_solute_opt,mol_4952_solvent_opt,50,41,298.15,-1.4119407572640026,Khellin,n-butanol
4953.0,O=c1[nH]cc(F)c(=O)[nH]1,CCCCO,mol_4953_solute_opt,mol_4953_solvent_opt,50,39,283.15,-1.95152188074966,5-fluorouracil,n-butanol
4954.0,CC(=O)c1cccc(O)c1,CCCCO,mol_4954_solute_opt,mol_4954_solvent_opt,50,31,289.15,0.3016252072391812,m-hydroxyacetophenone (m-HAP),n-butanol
4955.0,O=C(NC[C@H]1CN(c2ccc(N3CCOCC3=O)cc2)C(=O)O1)c1ccc(Cl)s1,CCCCO,mol_4955_solute_opt,mol_4955_solvent_opt,50,28,283.15,-4.212494283134385,Rivaroxaban,n-butanol
4956.0,O=C(c1ccccc1)c1ccc(Cl)cc1,CCCCO,mol_4956_solute_opt,mol_4956_solvent_opt,50,34,278.15,-0.5109948175017962,4-chlorobenzophenone,n-butanol
4957.0,CC(N)=S,CCCCO,mol_4957_solute_opt,mol_4957_solvent_opt,50,44,273.15,-0.3149208640234739,Thioacetamide,n-butanol
4958.0,O=C(Nc1ccc([N+](=O)[O-])cc1Cl)c1cc(Cl)ccc1O,CCCCO,mol_4958_solute_opt,mol_4958_solvent_opt,50,32,298.15,-2.479281279453869,Niclosamide,n-butanol
4959.0,C1=CONN=C1,CCCCO,mol_4959_solute_opt,mol_4959_solvent_opt,50,42,293.15,-1.6619482126977496,Oxadiazine,n-butanol
4960.0,Brc1cnc2[nH]ccc2c1,CCCCO,mol_4960_solute_opt,mol_4960_solvent_opt,50,44,278.15,-0.76101912820376,5-bromo-7-azaindole,n-butanol
4961.0,Oc1ccc([C@@H]2COc3cc(O)ccc3C2)cc1,CCCCO,mol_4961_solute_opt,mol_4961_solvent_opt,50,46,273.15,-0.5591008786448007,(R)-equol,n-butanol
4962.0,CCCN(CCc1cccs1)[C@H]1CCc2c(O)cccc2C1,CCCCO,mol_4962_solute_opt,mol_4962_solvent_opt,50,33,278.15,-1.072592648667957,Rotigotine,n-butanol
4963.0,NC(=O)c1nc(F)cnc1O,CCCCO,mol_4963_solute_opt,mol_4963_solvent_opt,50,38,293.15,-1.5405669485921702,Favipiravir,n-butanol
4964.0,O=C1O[C@H](CO)[C@@H](O)[C@H](O)[C@H]1O,CCCCO,mol_4964_solute_opt,mol_4964_solvent_opt,50,35,288.15,-2.5019126078067666,"1,5-gluconolactone",n-butanol
4965.0,O=C1CCCCCCCCCCC1,CCCCO,mol_4965_solute_opt,mol_4965_solvent_opt,50,36,278.15,0.084369415155741,Cyclododecanone,n-butanol
4967.0,C=C1C[C@]23C[C@@]1(O)CC[C@H]2[C@@]12C=C[C@H](O)[C@@](C)(C(=O)O1)[C@H]2[C@@H]3C(=O)O,CCCCO,mol_4967_solute_opt,mol_4967_solvent_opt,50,34,278.15,-1.632434074272063,Gibberellin a3,n-butanol
4968.0,Nc1cccc2ccccc12,CCCCO,mol_4968_solute_opt,mol_4968_solvent_opt,50,37,273.15,0.1463756038637627,1-naphthylamine,n-butanol
4969.0,CCCCC(=O)N(Cc1ccc(-c2ccccc2-c2nn[nH]n2)cc1)[C@H](C(=O)O)C(C)C,CCCCO,mol_4969_solute_opt,mol_4969_solvent_opt,50,30,278.15,-0.6705836666178794,Valsartan,n-butanol
4971.0,Nc1cc(Cl)ccc1[N+](=O)[O-],CCCCO,mol_4971_solute_opt,mol_4971_solvent_opt,50,44,283.15,-0.6883095305504366,5-chloro-2-nitroaniline,n-butanol
4972.0,Cc1c(C(=O)O)cccc1[N+](=O)[O-],CCCCO,mol_4972_solute_opt,mol_4972_solvent_opt,50,42,278.15,-0.6976941784621863,2-methyl-3-nitrobenzoic acid,n-butanol
4973.0,Cc1ccc(CO)cc1,CCCCO,mol_4973_solute_opt,mol_4973_solvent_opt,50,44,278.15,0.5707798383327812,p-methylbenzyl alcohol,n-butanol
4974.0,NC(=O)Cc1ccc(O)cc1,CCCCO,mol_4974_solute_opt,mol_4974_solvent_opt,50,40,278.15,-1.5010128552585582,4-hydroxyphenylacetamide,n-butanol
4975.0,CC1CCC(=O)C1=O,CCCCO,mol_4975_solute_opt,mol_4975_solvent_opt,50,47,278.15,-0.3921839195165369,"3-methyl-1,2-cyclopentanedione",n-butanol
4976.0,CCN(CC)C(=S)SSC(=S)N(CC)CC,CCCCO,mol_4976_solute_opt,mol_4976_solvent_opt,50,34,273.15,-1.9156552937428213,Disulfiram,n-butanol
4977.0,CN(CCOc1ccc(CC2SC(=O)NC2=O)cc1)c1ccccn1,CCCCO,mol_4977_solute_opt,mol_4977_solvent_opt,50,33,283.15,-2.424159679170505,Rosiglitazone,n-butanol
4978.0,CCCCCc1ccc2c(c1)C(=O)c1ccccc1C2=O,CCCCO,mol_4978_solute_opt,mol_4978_solvent_opt,50,37,288.15,-1.0390341110562,2-amyl anthraquinone,n-butanol
4979.0,OCc1cn(Cc2ccccc2)nn1,CCCCO,mol_4979_solute_opt,mol_4979_solvent_opt,50,36,292.15,-0.4126342812038852,"(1-benzyl-1H-1,2,3-triazole-4-yl)methanol",n-butanol
4981.0,CCC[C@@H]1C[C@@H](C(=O)N[C@@H]([C@H]2O[C@H](SC)[C@H](O)[C@H]3OC(C)(C)O[C@H]32)[C@H](C)Cl)N(C)C1,CCCCO,mol_4981_solute_opt,mol_4981_solvent_opt,50,29,273.15,-0.7261775467630723,"3,4-o-isopropylidene clindamycin",n-butanol
4982.0,O=C[C@H](O)[C@H](O)[C@H](O)CO,CCCCO,mol_4982_solute_opt,mol_4982_solvent_opt,50,40,283.15,-1.367096373043941,D-ribose,n-butanol
4983.0,CC(C)(Oc1ccc(CCNC(=O)c2ccc(Cl)cc2)cc1)C(=O)O,CCCCO,mol_4983_solute_opt,mol_4983_solvent_opt,50,32,283.16,-1.600731270589147,Bezafibrate,n-butanol
4984.0,N[C@@H](CS)C(=O)O,CCCCO,mol_4984_solute_opt,mol_4984_solvent_opt,50,41,283.15,-3.3343039582512755,L-cysteine,n-butanol
4985.0,O=C(O)c1cc([N+](=O)[O-])cc([N+](=O)[O-])c1O,CCCCO,mol_4985_solute_opt,mol_4985_solvent_opt,50,43,278.15,-0.8867993114582579,"3,5-dinitrosalicylic acid",n-butanol
4986.0,CCCSc1nc(N[C@@H]2C[C@H]2c2ccc(F)c(F)c2)c2nnn([C@@H]3C[C@H](OCCO)[C@@H](O)[C@H]3O)c2n1,CCCCO,mol_4986_solute_opt,mol_4986_solvent_opt,50,31,273.15,-1.4912499754348436,Ticagrelor,n-butanol
4987.0,O=C1N=c2ccccc2=N1,CCCCO,mol_4987_solute_opt,mol_4987_solvent_opt,50,45,283.15,-1.4617526945817485,2-benzimidazolone,n-butanol
4988.0,CC(C)(c1ccc(O)cc1)c1ccc(O)cc1,CCCCO,mol_4988_solute_opt,mol_4988_solvent_opt,50,39,273.15,-0.0455757793315369,Bisphenol A,n-butanol
4989.0,O=C(Nc1ccccc1)c1ccccc1,CCCCO,mol_4989_solute_opt,mol_4989_solvent_opt,50,35,274.15,-1.50713929142844,Benzanilide,n-butanol
4990.0,O=C(O)Cc1ccc([N+](=O)[O-])cc1,CCCCO,mol_4990_solute_opt,mol_4990_solvent_opt,50,39,283.15,-0.2386162825938713,4-nitrophenylacetic acid,n-butanol
4991.0,C#C[C@]1(O)CC[C@H]2[C@@H]3CCC4=CC(=O)CC[C@@H]4[C@H]3C(=C)C[C@@]21CC,CCCCO,mol_4991_solute_opt,mol_4991_solvent_opt,50,28,273.15,-1.3274410956687386,Etonogestrel,n-butanol
4992.0,NS(=O)(=O)Cc1noc2ccccc12,CCCCO,mol_4992_solute_opt,mol_4992_solvent_opt,50,41,273.15,-2.7230326731325207,Zonisamide,n-butanol
4993.0,CC(=O)Oc1ccccc1C(=O)Nc1ncc([N+](=O)[O-])s1,CCCCO,mol_4993_solute_opt,mol_4993_solvent_opt,50,33,273.15,-2.707966320478877,Nitazoxanide,n-butanol
4994.0,CC1=NN(c2ccccc2)C(=O)C1,CCCCO,mol_4994_solute_opt,mol_4994_solvent_opt,50,41,283.15,-0.6615128393922497,Edaravone,n-butanol
4995.0,O=c1cc(CBr)c2ccccc2[nH]1,CCCCO,mol_4995_solute_opt,mol_4995_solvent_opt,50,39,273.15,-2.4910314692846622,4-(bromomethyl)-2(1H)-quinolinone,n-butanol
4996.0,Nc1cccc(Cl)c1C(=O)O,CCCCO,mol_4996_solute_opt,mol_4996_solvent_opt,50,45,278.15,-0.7135318861188465,2-amino-6-chlorobenzoic acid,n-butanol
4997.0,OCc1ccccc1O[C@@H]1OC(CO)[C@@H](O)[C@@H](O)C1O,CCCCO,mol_4997_solute_opt,mol_4997_solvent_opt,50,32,283.15,-2.864867250745416,D(−)-salicin,n-butanol
4998.0,O=Cc1cc(Br)c(O)c(Br)c1,CCCCO,mol_4998_solute_opt,mol_4998_solvent_opt,50,46,278.15,-1.3392997352858906,"3,5-dibromo-4-hydroxybenzaldehyde",n-butanol
4999.0,COc1cc2nc(Cl)nc(N)c2cc1OC,CCCCO,mol_4999_solute_opt,mol_4999_solvent_opt,50,35,273.15,-2.552735511835824,"2-chloro-4-amino-6,7-dimethoxyquinazoline",n-butanol
5000.0,O=C(O)Cc1ccccc1[N+](=O)[O-],CCCCO,mol_5000_solute_opt,mol_5000_solvent_opt,50,37,283.15,-0.7259570132371707,2-nitrophenylacetic acid,n-butanol
5001.0,O=[N+]([O-])N=C1NCCN1Cc1ccc(Cl)nc1,CCCCO,mol_5001_solute_opt,mol_5001_solvent_opt,50,39,293.15,-2.359432652320222,Imidacloprid,n-butanol
5002.0,C=CC(=O)NC(C)(C)CS(=O)(=O)O,CCCCO,mol_5002_solute_opt,mol_5002_solvent_opt,50,46,283.15,-1.4009151183006603,2-acrylamide-2-methylpropanesulfonic acid,n-butanol
5003.0,CCCOC(=O)c1ccc(O)cc1,CCCCO,mol_5003_solute_opt,mol_5003_solvent_opt,50,38,283.15,0.2308916034625051,Propylparaben,n-butanol
5004.0,O=C1CC[C@@H](C(=O)N2CSC[C@H]2C(=O)O)N1,CCCCO,mol_5004_solute_opt,mol_5004_solvent_opt,50,42,278.15,-2.599441893148505,Pidotimod,n-butanol
5005.0,Nc1ccc(Cc2ccc(N)c(Cl)c2)cc1Cl,CCCCO,mol_5005_solute_opt,mol_5005_solvent_opt,50,40,283.15,-0.470817737806555,"4,4′-methylene-bis-(2-chloroaniline)",n-butanol
5006.0,c1ccc2[nH]c(-c3cscn3)nc2c1,CCCCO,mol_5006_solute_opt,mol_5006_solvent_opt,50,37,283.15,-1.7527560790828982,Thiabendazole,n-butanol
5007.0,O=Cc1cc(C=O)cc(C=O)c1,CCCCO,mol_5007_solute_opt,mol_5007_solvent_opt,50,42,283.15,-2.10113510972194,"1,3,5-triformylbenzene",n-butanol
5008.0,O=C(O)[C@@H]1C[C@@H](O)CN1,CCCCO,mol_5008_solute_opt,mol_5008_solvent_opt,50,41,283.15,-3.0130505976542112,L-hydroxyproline,n-butanol
5009.0,CC(=O)O[C@]1(C(C)=O)CC[C@H]2[C@@H]3C=C(Cl)C4=CC(=O)[C@@H]5C[C@@H]5[C@]4(C)[C@H]3CC[C@@]21C,CCCCO,mol_5009_solute_opt,mol_5009_solvent_opt,50,26,273.15,-2.329183349617112,Cyproterone acetate,n-butanol
5010.0,CC1(C)CC[C@]2(C(=O)O)CC[C@]3(C)C(=CC[C@@H]4[C@@]5(C)CC[C@H](O)C(C)(C)[C@@H]5CC[C@]43C)[C@@H]2C1,CCCCO,mol_5010_solute_opt,mol_5010_solvent_opt,50,32,278.2,-1.6847974158653072,Oleanolic acid,n-butanol
5011.0,C[C@H]1[C@H](C)CC[C@]2(C(=O)O)CC[C@]3(C)C(=CC[C@@H]4[C@@]5(C)CC[C@H](O)C(C)(C)[C@@H]5CC[C@]43C)[C@H]12,CCCCO,mol_5011_solute_opt,mol_5011_solvent_opt,50,29,278.2,-1.7690944237781296,Ursolic acid,n-butanol
5012.0,OCC(O)COc1ccc(Cl)cc1,CCCCO,mol_5012_solute_opt,mol_5012_solvent_opt,50,37,288.15,-0.3145054483695947,Chlorphenesin,n-butanol
5014.0,O=C(O)c1cccc(O)c1O,CCCCO,mol_5014_solute_opt,mol_5014_solvent_opt,50,38,278.15,-0.1111831202026081,"2,3-dihydroxybenzoic acid",n-butanol
5015.0,O=C(Nc1ccccc1)c1ccccc1O,CCCCO,mol_5015_solute_opt,mol_5015_solvent_opt,50,35,283.15,-0.8394574398422702,Salicylanilide,n-butanol
5016.0,CCOc1ccccc1C(N)=O,CCCCO,mol_5016_solute_opt,mol_5016_solvent_opt,50,39,288.15,-1.0635040983977482,Ethenzamide,n-butanol
5017.0,Cn1c(=O)c2c(ncn2CC2OCCO2)n(C)c1=O,CCCCO,mol_5017_solute_opt,mol_5017_solvent_opt,50,34,283.18,-2.26905600432238,Doxofylline,n-butanol
5018.0,CC(=O)N1CCC[C@H]1C(=O)O,CCCCO,mol_5018_solute_opt,mol_5018_solvent_opt,50,40,283.15,-0.3246222315112085,N-acetyl-L-proline,n-butanol
5019.0,CC(=O)Nc1ccccc1[N+](=O)[O-],CCCCO,mol_5019_solute_opt,mol_5019_solvent_opt,50,36,278.15,-0.962261602447438,o-nitroacetanilide,n-butanol
5020.0,COc1cc2c(cc1OC)C(=O)CC2,CCCCO,mol_5020_solute_opt,mol_5020_solvent_opt,50,33,283.15,-0.882250868201086,"5,6-dimethoxy-1-indanone",n-butanol
5021.0,Cc1cc(Cl)cc(C(=O)O)c1N,CCCCO,mol_5021_solute_opt,mol_5021_solvent_opt,50,41,278.15,-1.210590871805546,2-amino-5-chloro-3-methylbenzoic acid,n-butanol
5022.0,O=C(O)CNCc1ccccc1,CCCCO,mol_5022_solute_opt,mol_5022_solvent_opt,50,39,283.15,-2.7373913024920515,N-benzylglycine,n-butanol
5023.0,Nc1cccc(S(=O)(=O)c2cccc(N)c2)c1,CCCCO,mol_5023_solute_opt,mol_5023_solvent_opt,50,36,283.15,-1.9184763839781351,"3,3′-diaminodiphenyl sulfone",n-butanol
5024.0,CSCCC(NC(C)=O)C(=O)O,CCCCO,mol_5024_solute_opt,mol_5024_solvent_opt,50,39,283.15,-0.5545539227178113,N-acetyl-DL-methionine,n-butanol
5025.0,Cc1ccc([N+](=O)[O-])c(C(=O)O)c1,CCCCO,mol_5025_solute_opt,mol_5025_solvent_opt,50,41,290.65,0.3411244495381942,5-methyl-2-nitrobenzoic acid,n-butanol
5026.0,Cc1cccc(C(=O)O)c1[N+](=O)[O-],CCCCO,mol_5026_solute_opt,mol_5026_solvent_opt,50,45,300.75,-0.7090445525984065,3-methyl-2-nitrobenzoic acid,n-butanol
5027.0,Cc1c(N)cccc1C(=O)O,CCCCO,mol_5027_solute_opt,mol_5027_solvent_opt,50,34,288.15,-1.585125154418014,3-amino-2-methylbenzoic acid,n-butanol
5028.0,O=C(O)COc1ccc(Cl)cc1,CCCCO,mol_5028_solute_opt,mol_5028_solvent_opt,50,38,283.15,-0.5612815207921136,4-chlorophenoxyacetic acid,n-butanol
5029.0,c1ccc(-n2c(-c3cc(-c4nc5ccccc5n4-c4ccccc4)cc(-c4nc5ccccc5n4-c4ccccc4)c3)nc3ccccc32)cc1,CCCCO,mol_5029_solute_opt,mol_5029_solvent_opt,50,25,283.15,-1.888877205625567,"1,3,5-tris(1-phenyl-1H-benzimidazol-2-yl)benzene",n-butanol
5030.0,CC(C)(C)OC(=O)N1CCC[C@H]1C(=O)O,CCCCO,mol_5030_solute_opt,mol_5030_solvent_opt,50,31,283.15,0.032016172856658,Boc-L-proline,n-butanol
5031.0,Nc1nc(=O)[nH]cc1F,CCCCO,mol_5031_solute_opt,mol_5031_solvent_opt,50,42,283.15,-2.5067379926128783,5-fluorocytosine,n-butanol
5032.0,CNC(=O)c1cc(Oc2ccc(N)cc2)ccn1,CCCCO,mol_5032_solute_opt,mol_5032_solvent_opt,50,37,278.15,-1.3409982220313166,4-[2-(n-methylcarbamyl)-4-pyridyloxy]aniline,n-butanol
5033.0,Nc1cccc(C(=O)O)c1,CCCCO,mol_5033_solute_opt,mol_5033_solvent_opt,50,38,283.15,-1.229097099057685,M-aminobenzoic acid,n-butanol
5034.0,O=C(O)c1cccc([N+](=O)[O-])c1O,CCCCO,mol_5034_solute_opt,mol_5034_solvent_opt,50,44,278.15,-0.4768538777557188,3-nitrosalicylic acid,n-butanol
5035.0,CNC(=O)c1cc(Oc2ccc(NC(=O)Nc3ccc(Cl)c(C(F)(F)F)c3)cc2)ccn1,CCCCO,mol_5035_solute_opt,mol_5035_solvent_opt,50,25,273.15,-2.0923033978465044,Sorafenib,n-butanol
5036.0,O=C1CCc2cc(OCCCCc3nnnn3C3CCCCC3)ccc2N1,CCCCO,mol_5036_solute_opt,mol_5036_solvent_opt,50,32,273.15,-2.3128841657094945,Cilostazol,n-butanol
5037.0,NC(=O)c1ncn([C@@H]2O[C@H](CO)[C@@H](O)[C@H]2O)n1,CCCCO,mol_5037_solute_opt,mol_5037_solvent_opt,50,35,283.15,-3.0859662411430944,Ribavirin(II),n-butanol
5038.0,C#C[C@]1(O)C=C[C@H]2[C@@H]3CCC4=CC(=O)CC[C@@H]4[C@H]3CC[C@@]21CC,CCCCO,mol_5038_solute_opt,mol_5038_solvent_opt,50,38,283.15,-1.3592555335823162,Gestodene,n-butanol
5039.0,CSc1nc2cc(Oc3cccc(Cl)c3Cl)c(Cl)cc2[nH]1,CCCCO,mol_5039_solute_opt,mol_5039_solvent_opt,50,43,278.15,-0.6010667875990939,Triclabendazole,n-butanol
5040.0,COc1cc(C=O)cc(OC)c1OC,CCCCO,mol_5040_solute_opt,mol_5040_solvent_opt,50,34,278.15,-1.2687942665966825,"3,4,5-trimethoxybenzaldehyde",n-butanol
5041.0,CC(S)C(=O)NCC(=O)O,CCCCO,mol_5041_solute_opt,mol_5041_solvent_opt,50,37,273.15,-0.5424869565642202,Tiopronin,n-butanol
5042.0,Cc1ccc(Nc2nccc(N(C)c3ccc4c(C)n(C)nc4c3)n2)cc1S(N)(=O)=O,CCCCO,mol_5042_solute_opt,mol_5042_solvent_opt,50,34,288.15,-3.931447274953322,Pazopanib,n-butanol
5044.0,CC(C)(C)OC(=O)N[C@@H](CC(N)=O)C(=O)O,CCCCO,mol_5044_solute_opt,mol_5044_solvent_opt,50,40,283.15,-2.0590513430310207,Boc-L-asparagine,n-butanol
5045.0,O=C(O)c1ccc(-c2ccccc2)cc1,CCCCO,mol_5045_solute_opt,mol_5045_solvent_opt,50,41,293.15,-1.2865951296593097,4-biphenylcarboxylic acid,n-butanol
5046.0,CCOc1ccc(NC(C)=O)cc1,CCCCO,mol_5046_solute_opt,mol_5046_solvent_opt,50,36,283.15,-0.8824004458077274,Phenacetin,n-butanol
5047.0,NC(=O)C[C@H](NC(=O)OCc1ccccc1)C(=O)O,CCCCO,mol_5047_solute_opt,mol_5047_solvent_opt,50,34,283.15,-2.595177521898217,N-benzyloxycarbonyl-L-asparagine,n-butanol
5049.0,C=CC(=O)NC(C)(C)CC(C)=O,CCCCO,mol_5049_solute_opt,mol_5049_solvent_opt,50,38,272.15,0.3548220045893169,Diacetone acrylamide,n-butanol
5050.0,CC(=O)Nc1ccc([N+](=O)[O-])cc1,CCCCO,mol_5050_solute_opt,mol_5050_solvent_opt,50,38,278.15,-1.6033739138605998,p-Nitroacetanilide,n-butanol
5051.0,NC(N)=NCCC[C@H](NC(=O)OCc1ccccc1)C(=O)O,CCCCO,mol_5051_solute_opt,mol_5051_solvent_opt,50,38,283.15,-3.1756462857519097,Nα-carbobenzyloxy-L-arginine,n-butanol
5052.0,CC(C)OC(=O)[C@H](C)N[P@](=O)(OC[C@H]1O[C@@H](n2ccc(=O)[nH]c2=O)[C@](C)(F)[C@@H]1O)Oc1ccccc1,CCCCO,mol_5052_solute_opt,mol_5052_solvent_opt,50,39,278.15,-0.9805343407249538,Sofosbuvir,n-butanol
5053.0,O=C([O-])c1nc[nH]n1,CCCCO,mol_5053_solute_opt,mol_5053_solvent_opt,50,46,278.55,-1.65528841270887,"Methyl 1,2,4-triazole-3-carboxylate",n-butanol
5054.0,CS(N)(=O)=O,CCCCO,mol_5054_solute_opt,mol_5054_solvent_opt,50,46,283.1,-0.8838938730131676,Methanesulfonamide,n-butanol
5055.0,O=C(O)c1cc([N+](=O)[O-])ccc1O,CCCCO,mol_5055_solute_opt,mol_5055_solvent_opt,50,37,278.15,-0.7112202994629276,5-nitroSalicylic acid,n-butanol
5056.0,O=c1cc(-c2ccccc2)oc2c1ccc1ccccc12,CCCCO,mol_5056_solute_opt,mol_5056_solvent_opt,50,38,273.15,-1.9277889692742023,α-Naphthoflavone,n-butanol
5057.0,O=C(N[C@@H](Cc1c[nH]c2ccccc12)C(=O)O)OCc1ccccc1,CCCCO,mol_5057_solute_opt,mol_5057_solvent_opt,50,36,283.15,-0.5834248778859831,N-benzyloxycarbonyl-L-tryptophan,n-butanol
5059.0,NCC(CC(=O)O)c1ccc(Cl)cc1,CCCCO,mol_5059_solute_opt,mol_5059_solvent_opt,50,40,273.15,-3.1952243546504926,Baclofen,n-butanol
5060.0,CC(C)(C)OC(=O)N[C@@H](CCC(N)=O)C(=O)O,CCCCO,mol_5060_solute_opt,mol_5060_solvent_opt,50,33,283.15,-0.3081066849188435,Boc-L-glutamine,n-butanol
5061.0,O=C1c2ccccc2-c2ccc(Br)cc21,CCCCO,mol_5061_solute_opt,mol_5061_solvent_opt,50,42,278.15,-1.9894929015493232,2-bromo-9-fluorenone,n-butanol
5062.0,Nc1ccccn1,CCCCO,mol_5062_solute_opt,mol_5062_solvent_opt,50,42,273.15,0.4273555480487294,2-aminopyridine,n-butanol
5063.0,O=[N+]([O-])c1cc([N+](=O)[O-])c(Cl)cc1Cl,CCCCO,mol_5063_solute_opt,mol_5063_solvent_opt,50,43,298.15,-1.1660907522890036,"1,5-dichloro-2,4-dinitrobenzene",n-butanol
5064.0,CC(C)(C)NCC(O)c1ccc(O)c(CO)c1,CCCCO,mol_5064_solute_opt,mol_5064_solvent_opt,50,34,283.15,-1.9200704052473216,Salbutamol,n-butanol
5065.0,O=C(O)c1ccc(Br)cn1,CCCCO,mol_5065_solute_opt,mol_5065_solvent_opt,50,25,278.15,-0.8763001372837029,5-bromo-2-pyridinecarboxylic acid,n-butanol
5066.0,CCCc1nc(C(C)(C)O)c(C(=O)OCC)n1Cc1ccc(-c2ccccc2-c2nnnn2C(c2ccccc2)(c2ccccc2)c2ccccc2)cc1,CCCCO,mol_5066_solute_opt,mol_5066_solvent_opt,50,31,278.15,-2.7075162030911817,N-trityl olmesartan ethyl ester,n-butanol
5067.0,O=C(O)c1cc([N+](=O)[O-])cc([N+](=O)[O-])c1,CCCCO,mol_5067_solute_opt,mol_5067_solvent_opt,50,41,283.15,-0.8126157582860372,"3,5-dinitrobenzoic acid",n-butanol
5068.0,C[C@H]1[C@H](OC(=O)CCC(=O)O)O[C@@H]2O[C@@]3(C)CC[C@H]4[C@H](C)CC[C@@H]1[C@@]24OO3,CCCCO,mol_5068_solute_opt,mol_5068_solvent_opt,50,35,283.14,-1.0977198189854085,Artesunate,n-butanol
5069.0,CC(=O)c1ccc(O)cc1O,CCCCO,mol_5069_solute_opt,mol_5069_solvent_opt,50,41,293.15,0.1024060591912374,"2′,4′-dihydroxyacetophenone",n-butanol