pair_id,SMILES_Solute,SMILES_Solvent,Solute_name,Solvent_name,Total_conformers,Filtered_conformers,Temperature_K,LogS,Compound_Name,Solvent
6129.0,CC(=O)Oc1ccccc1C(=O)O,Cc1ccccc1,mol_6129_solute_opt,mol_6129_solvent_opt,50,35,321.25,-1.1332987111230268,Aspirin,toluene
6130.0,COc1ccc2cc(C(C)C(=O)O)ccc2c1,Cc1ccccc1,mol_6130_solute_opt,mol_6130_solvent_opt,50,40,312.15,-1.4316729689575671,(RS)-Naproxen,toluene
6131.0,COc1ccc2cc([C@H](C)C(=O)O)ccc2c1,Cc1ccccc1,mol_6131_solute_opt,mol_6131_solvent_opt,50,40,307.85,-1.252676232499902,(S)-Naproxen,toluene
6132.0,Cn1c(=O)c2c(ncn2C)n(C)c1=O,Cc1ccccc1,mol_6132_solute_opt,mol_6132_solvent_opt,50,41,292.15,-1.5475971701332805,Caffeine,toluene
6133.0,NC(=O)N1c2ccccc2C=Cc2ccccc21,Cc1ccccc1,mol_6133_solute_opt,mol_6133_solvent_opt,50,41,301.85,-2.0301554551483845,Carbamazepine,toluene
6134.0,NC(=O)c1ccccn1,Cc1ccccc1,mol_6134_solute_opt,mol_6134_solvent_opt,50,46,301.05,-0.9457869248956534,Picolinamide,toluene
6135.0,Nc1ccccc1C(=O)O,Cc1ccccc1,mol_6135_solute_opt,mol_6135_solvent_opt,50,40,295.55,-1.179467496420889,2-aminobenzoic acid,toluene
6136.0,O=C(O)c1ccccc1O,Cc1ccccc1,mol_6136_solute_opt,mol_6136_solvent_opt,50,42,305.65,-1.184244717473898,Salicylic acid,toluene
6137.0,O=C(Oc1ccccc1C(=O)O)c1ccccc1O,Cc1ccccc1,mol_6137_solute_opt,mol_6137_solvent_opt,50,41,327.75,-0.8319087375731179,Salicylsalicylic acid,toluene
6138.0,c1ccc2nc3ccccc3nc2c1,Cc1ccccc1,mol_6138_solute_opt,mol_6138_solvent_opt,50,41,282.95,-0.839074296715553,Phenazine,toluene
6139.0,CC(=CC(C)=Nc1c(C)cc(C)cc1C)Nc1c(C)cc(C)cc1C,Cc1ccccc1,mol_6139_solute_opt,mol_6139_solvent_opt,50,36,273.15,0.349328568572264,"2,4,6-trimethyl-N-[4-(2,4,6-trimethylphenyl)iminopent-2-en-2-yl]aniline",toluene
6140.0,O=C1CCCCCCCCCCC1,Cc1ccccc1,mol_6140_solute_opt,mol_6140_solvent_opt,50,40,278.15,0.6731280492367004,Cyclododecanone,toluene
6141.0,Oc1ccc(Cl)cc1C=Nc1ccccn1,Cc1ccccc1,mol_6141_solute_opt,mol_6141_solvent_opt,50,40,268.15,-0.9958803568750192,"4-Chloro-6-{[(pyridin-2-yl)amino]methylidene}cyclohexa-2,4-dien-1-one",toluene
6142.0,Oc1ccccc1C=Nc1ccccn1,Cc1ccccc1,mol_6142_solute_opt,mol_6142_solvent_opt,50,43,268.15,0.1797030360003627,2-[(E)-(2-Pyridinylimino)methyl]phenol,toluene
6143.0,CC1(C)C[C@@H]1C(N)=O,Cc1ccccc1,mol_6143_solute_opt,mol_6143_solvent_opt,50,44,288.7,-1.6780691813381905,"(S)-(+)-2,2-dimethyl-cyclopropane carbox amide",toluene
6144.0,ClCc1ccc(Cl)nc1,Cc1ccccc1,mol_6144_solute_opt,mol_6144_solvent_opt,50,44,278.75,-0.7306078386020273,2-chloro-5-chloromethylpyridine,toluene
6145.0,CCCSc1nc(N[C@@H]2C[C@H]2c2ccc(F)c(F)c2)c2nnn([C@@H]3C[C@H](OCCO)[C@@H](O)[C@H]3O)c2n1,Cc1ccccc1,mol_6145_solute_opt,mol_6145_solvent_opt,50,20,273.15,-3.540070833268101,Ticagrelor,toluene
6146.0,O=C(Nc1ccccc1)c1ccccc1,Cc1ccccc1,mol_6146_solute_opt,mol_6146_solvent_opt,50,34,274.15,-2.1552169568015707,Benzanilide,toluene
6147.0,NS(=O)(=O)Cc1noc2ccccc12,Cc1ccccc1,mol_6147_solute_opt,mol_6147_solvent_opt,50,46,273.15,-3.466227920933113,Zonisamide,toluene
6148.0,CC(=O)Oc1ccccc1C(=O)Nc1ncc([N+](=O)[O-])s1,Cc1ccccc1,mol_6148_solute_opt,mol_6148_solvent_opt,50,36,273.15,-3.1363585171019355,Nitazoxanide,toluene
6149.0,CC(=O)Nc1ccc(OC(=O)c2ccccc2OC(C)=O)cc1,Cc1ccccc1,mol_6149_solute_opt,mol_6149_solvent_opt,50,39,278.15,-3.905558499130711,Benorilate,toluene
6150.0,O=c1cc(CBr)c2ccccc2[nH]1,Cc1ccccc1,mol_6150_solute_opt,mol_6150_solvent_opt,50,47,273.15,-3.841107343495889,4-(bromomethyl)-2(1H)-quinolinone,toluene
6151.0,Nc1cccc(Cl)c1C(=O)O,Cc1ccccc1,mol_6151_solute_opt,mol_6151_solvent_opt,50,45,278.15,-1.3682313529088743,2-amino-6-chlorobenzoic acid,toluene
6152.0,COc1cc2nc(Cl)nc(N)c2cc1OC,Cc1ccccc1,mol_6152_solute_opt,mol_6152_solvent_opt,50,35,273.15,-4.716174252763844,"2-chloro-4-amino-6,7-dimethoxyquinazoline",toluene
6153.0,C=CC(=O)NC(C)(C)CS(=O)(=O)O,Cc1ccccc1,mol_6153_solute_opt,mol_6153_solvent_opt,50,50,283.15,-0.4612962658965855,2-acrylamide-2-methylpropanesulfonic acid,toluene
6154.0,O=C(O)c1cccc(C(=O)O)n1,Cc1ccccc1,mol_6154_solute_opt,mol_6154_solvent_opt,50,43,278.15,-2.457056086423659,"2,6-pyridinedicarboxylic acid",toluene
6155.0,CNC(=O)c1cc(Oc2ccc(NC(=O)Nc3ccc(Cl)c(C(F)(F)F)c3)cc2)ccn1,Cc1ccccc1,mol_6155_solute_opt,mol_6155_solvent_opt,50,26,273.15,-1.7227669401604802,Sorafenib,toluene
6156.0,CC(S)C(=O)NCC(=O)O,Cc1ccccc1,mol_6156_solute_opt,mol_6156_solvent_opt,50,43,273.15,-2.498547836308204,Tiopronin,toluene
6157.0,CCOc1ccc(C=O)cc1O,Cc1ccccc1,mol_6157_solute_opt,mol_6157_solvent_opt,50,40,283.15,-1.5153225934220669,Iso-ethylvanillin,toluene
6158.0,CC(=O)OC(OC(C)=O)c1ccc([N+](=O)[O-])o1,Cc1ccccc1,mol_6158_solute_opt,mol_6158_solvent_opt,50,41,278.15,0.1971510280149497,2-(diacetoxymethyl)-5-nitrofuran,toluene
6159.0,CC(C)OC(=O)[C@H](C)N[P@](=O)(OC[C@H]1O[C@@H](n2ccc(=O)[nH]c2=O)[C@](C)(F)[C@@H]1O)Oc1ccccc1,Cc1ccccc1,mol_6159_solute_opt,mol_6159_solvent_opt,50,34,278.15,-4.369684094948755,Sofosbuvir,toluene
6160.0,O=P1(C(Nc2ccccc2)c2ccccc2)OCC2(CO1)COP(=O)(C(Nc1ccccc1)c1ccccc1)OC2,Cc1ccccc1,mol_6160_solute_opt,mol_6160_solvent_opt,50,31,283.15,-2.1378707448497623,"3,9-bis(phenyl(phenylamino)methyl)-2,4,8,10-tetraoxa-3,9-diphosphaspiro[5.5] undecane 3,9-dioxide",toluene
6161.0,O=c1cc(-c2ccccc2)oc2c1ccc1ccccc12,Cc1ccccc1,mol_6161_solute_opt,mol_6161_solvent_opt,50,36,273.15,-1.388920693502785,α-Naphthoflavone,toluene
6162.0,OCCOc1ccc2ccccc2c1-c1c(OCCO)ccc2ccccc12,Cc1ccccc1,mol_6162_solute_opt,mol_6162_solvent_opt,50,34,283.15,-2.0745367509370096,"2,2’-bis(2-hydroxyethoxy)-1,1′-binaphthalene",toluene
6163.0,NCC(CC(=O)O)c1ccc(Cl)cc1,Cc1ccccc1,mol_6163_solute_opt,mol_6163_solvent_opt,50,42,273.15,-1.282459812090895,Baclofen,toluene
6164.0,O=[N+]([O-])c1cc([N+](=O)[O-])c(Cl)cc1Cl,Cc1ccccc1,mol_6164_solute_opt,mol_6164_solvent_opt,50,48,298.15,0.3731753749438936,"1,5-dichloro-2,4-dinitrobenzene",toluene
6165.0,CS(=O)(=O)Nc1ccc([N+](=O)[O-])cc1Oc1ccccc1,Cc1ccccc1,mol_6165_solute_opt,mol_6165_solvent_opt,50,46,273.15,-2.6612720685335622,Nimesulide,toluene
6166.0,CCCc1nc(C(C)(C)O)c(C(=O)OCC)n1Cc1ccc(-c2ccccc2-c2nnnn2C(c2ccccc2)(c2ccccc2)c2ccccc2)cc1,Cc1ccccc1,mol_6166_solute_opt,mol_6166_solvent_opt,50,31,278.15,-1.608965361353213,N-trityl olmesartan ethyl ester,toluene
6167.0,CCCCCCC1(CCCCCC)c2cc(Br)ccc2-c2ccc(Br)cc21,Cc1ccccc1,mol_6167_solute_opt,mol_6167_solvent_opt,50,33,283.15,-0.0172606616387694,"9,9-dihexyl-2,7-dibromofluorene",toluene
6168.0,Nc1ccc(Br)nn1,Cc1ccccc1,mol_6168_solute_opt,mol_6168_solvent_opt,50,48,278.15,-1.019905959206601,3-amino-6-bromopyridazine,toluene
6169.0,Cc1ccc2cc(Br)ccc2n1,Cc1ccccc1,mol_6169_solute_opt,mol_6169_solvent_opt,50,42,278.15,-1.1035083527464424,6-bromo-2-methylquinoline,toluene
6170.0,CC(O)(CS(=O)(=O)c1ccc(F)cc1)C(=O)Nc1ccc(C#N)c(C(F)(F)F)c1,Cc1ccccc1,mol_6170_solute_opt,mol_6170_solvent_opt,50,36,278.15,-3.327079872938925,Bicalutamide,toluene
6171.0,COC(=O)c1ccnc(N)c1,Cc1ccccc1,mol_6171_solute_opt,mol_6171_solvent_opt,50,41,278.15,-1.100093173683106,Methyl 2-aminopyridine-4-carboxylate,toluene
6172.0,Oc1ccccc1C=Nc1c(F)cccc1F,Cc1ccccc1,mol_6172_solute_opt,mol_6172_solvent_opt,50,39,273.15,-0.0376101690878237,"2-[[(2,6-difluorophenyl)imino]methyl]phenol",toluene
6173.0,O=C1CCCC(=O)C1,Cc1ccccc1,mol_6173_solute_opt,mol_6173_solvent_opt,50,43,288.15,-1.7899226705579845,"1,3-cyclohexanedione",toluene
6174.0,COc1ccc(C(=O)O)cc1,Cc1ccccc1,mol_6174_solute_opt,mol_6174_solvent_opt,50,43,283.15,-2.229203506843928,4-methoxybenzoic acid,toluene
6175.0,CC(C)(C)c1ccc(-c2nnc(-c3ccc(-c4ccccc4)cc3)o2)cc1,Cc1ccccc1,mol_6175_solute_opt,mol_6175_solvent_opt,50,32,283.15,-0.5270593095347269,"2-(4-tert-butylphenyl)-5-(4-biphenyl)-1,3,4-oxadiazole",toluene
6176.0,Nc1ncnc2c1ncn2CCOCP(=O)(O)O,Cc1ccccc1,mol_6176_solute_opt,mol_6176_solvent_opt,50,40,278.15,-3.2636078861390128,Adefovir,toluene
6177.0,CC(=O)O[C@H]1NC(=O)[C@@H]1[C@@H](C)O[Si](C)(C)C(C)(C)C,Cc1ccccc1,mol_6177_solute_opt,mol_6177_solvent_opt,50,39,293.15,-0.0896710402945399,4-acetoxyazetidin-2-one,toluene
6178.0,Oc1ccccc1C=N[C@@H]1CCCC[C@H]1N=Cc1ccccc1O,Cc1ccccc1,mol_6178_solute_opt,mol_6178_solvent_opt,50,38,273.15,-0.3851366137693354,"Bis(salicylidene)-trans-1,2-cyclo-hexanediamine",toluene
6179.0,Cc1cc(Cl)ccc1OCC(=O)O,Cc1ccccc1,mol_6179_solute_opt,mol_6179_solvent_opt,50,44,278.15,-1.0910436398437084,2-methyl-4-chlorophenoxyacetic acid,toluene
6180.0,Cc1cccc2sc(NN)nc12,Cc1ccccc1,mol_6180_solute_opt,mol_6180_solvent_opt,50,44,273.15,-1.6601922907163822,2-hydrazino-4-methylbenzothiazole,toluene
6181.0,O=C(O)c1ccc(Cl)cc1Cl,Cc1ccccc1,mol_6181_solute_opt,mol_6181_solvent_opt,50,44,273.15,-1.8960575384050584,"2,4-dichlorobenzoic acid",toluene
6182.0,O=P(NCc1ccccc1)(Oc1ccccc1)Oc1ccccc1,Cc1ccccc1,mol_6182_solute_opt,mol_6182_solvent_opt,50,34,293.15,-0.985916867602742,"Phosphoramidic acid, N-(phenylmethyl)-, diphenyl ester (PANDE)",toluene
6183.0,Clc1cc(Cl)cc(Cl)c1,Cc1ccccc1,mol_6183_solute_opt,mol_6183_solvent_opt,50,47,273.15,0.2901521850695736,"1,3,5-trichlorobenzene",toluene
6184.0,O=C1OC[C@H]2[C@@H]1N(Cc1ccccc1)C(=O)N2Cc1ccccc1,Cc1ccccc1,mol_6184_solute_opt,mol_6184_solvent_opt,50,39,291.15,-1.1590532654715724,(+)-biotin intermediate lactone,toluene
6185.0,CS(=O)(=O)c1ccc(C=O)cc1,Cc1ccccc1,mol_6185_solute_opt,mol_6185_solvent_opt,50,45,283.15,-2.1486851062087693,4-(methylsulfonyl)benzaldehyde,toluene
6186.0,O=[N+]([O-])c1cn[nH]c1[N+](=O)[O-],Cc1ccccc1,mol_6186_solute_opt,mol_6186_solvent_opt,50,43,298.15,-1.725621756664987,"3,4-dinitro-1H-pyrazole",toluene
6187.0,O=C1NC23NC(=O)NC2(N1)C(=O)NC3=O,Cc1ccccc1,mol_6187_solute_opt,mol_6187_solvent_opt,50,46,273.15,-4.512053748953186,"3,7,9,11-Tetraoxo-2,4,6,8,10-pentaaza[3.3.3] Propellane (TOPAP)",toluene
6188.0,O=[N+]([O-])N1C2C3N([N+](=O)[O-])C1C1N([N+](=O)[O-])C(C(N1[N+](=O)[O-])N3[N+](=O)[O-])N2[N+](=O)[O-],Cc1ccccc1,mol_6188_solute_opt,mol_6188_solvent_opt,50,38,278.15,-3.029570500939988,ε-CL-20,toluene
6189.0,O=C(O)Cc1cccc2ccccc12,Cc1ccccc1,mol_6189_solute_opt,mol_6189_solvent_opt,50,37,278.25,-1.052705752803426,1-naphthaleneacetic acid,toluene
6190.0,CC(C)(C)c1ccc(C(=O)O)cc1,Cc1ccccc1,mol_6190_solute_opt,mol_6190_solvent_opt,50,44,293.15,-0.5142779993950535,Para-tert-butylbenzoic acid,toluene
6191.0,Cc1ccc(NC(=O)C(C)Cl)cc1,Cc1ccccc1,mol_6191_solute_opt,mol_6191_solvent_opt,50,42,273.24,-1.3015047824156012,2-chloro-N-(4-methylphenyl)propanamide,toluene
6192.0,On1nnc2ccccc21,Cc1ccccc1,mol_6192_solute_opt,mol_6192_solvent_opt,50,43,278.15,-3.9761404203008417,1-hydroxybenzotriazole,toluene
6193.0,CS(=O)(=O)c1ccc([C@@H](O)[C@@H](CO)NC(=O)C(Cl)Cl)cc1,Cc1ccccc1,mol_6193_solute_opt,mol_6193_solvent_opt,50,38,278.15,-4.422029988491172,Thiamphenicol,toluene
6194.0,N#Cc1cccc([N+](=O)[O-])c1,Cc1ccccc1,mol_6194_solute_opt,mol_6194_solvent_opt,50,42,278.15,-0.5951556853956562,3-nitrobenzonitrile,toluene
6195.0,CC1(C)COP(=O)(Oc2cccc(OP3(=O)OCC(C)(C)CO3)c2)OC1,Cc1ccccc1,mol_6195_solute_opt,mol_6195_solvent_opt,50,40,293.15,-2.8222994527969325,"Resorcinol bis(cyclic 2,2-dimethyl-1,3-propanediol phosphate)",toluene
6196.0,O=C(c1ccccc1)C(O)c1ccccc1,Cc1ccccc1,mol_6196_solute_opt,mol_6196_solvent_opt,50,44,273.15,-1.593793870893789,Benzoin,toluene
6197.0,Cc1ccc(NC(=O)/C(=C/Cl)Sc2ccccc2)cc1,Cc1ccccc1,mol_6197_solute_opt,mol_6197_solvent_opt,50,42,278.15,-0.8672563765654839,N-(4-methylphenyl-z-3-chloro-2-(phenylthio)propenamide,toluene
6198.0,COc1ccc(C(=O)N2CCCC2=O)cc1,Cc1ccccc1,mol_6198_solute_opt,mol_6198_solvent_opt,50,40,273.15,-1.0067409368936997,Aniracetam,toluene
6199.0,O=C(O)Cc1ccccc1Cl,Cc1ccccc1,mol_6199_solute_opt,mol_6199_solvent_opt,50,48,273.15,-0.6244087744244124,2-chlorophenylacetic acid,toluene
6200.0,CC(=O)c1ccc([N+](=O)[O-])cc1,Cc1ccccc1,mol_6200_solute_opt,mol_6200_solvent_opt,50,44,278.15,-0.1608194567862874,1-(4-nitrophenyl)ethanone,toluene
6201.0,CC(=O)c1cccc([N+](=O)[O-])c1,Cc1ccccc1,mol_6201_solute_opt,mol_6201_solvent_opt,50,43,278.15,-0.2586039966667769,1-(3-nitrophenyl)ethanone,toluene
6202.0,COc1ccc(CC(=O)O)cc1,Cc1ccccc1,mol_6202_solute_opt,mol_6202_solvent_opt,50,40,283.15,-0.7944866583409659,Para-methoxyphenylacetic acid,toluene
6203.0,Nc1nc(Cl)cc(Cl)n1,Cc1ccccc1,mol_6203_solute_opt,mol_6203_solvent_opt,50,46,278.15,-2.278195406172703,"2-amino-4,6-dichoropyrimidine",toluene
6204.0,COCC(=O)Nc1c(I)c(C(=O)NCC(O)CO)c(I)c(C(=O)N(C)CC(O)CO)c1I,Cc1ccccc1,mol_6204_solute_opt,mol_6204_solvent_opt,50,30,273.15,-4.021565622883454,Iopromide,toluene
6205.0,COc1ccc2c(c1)c(CC(=O)O)c(C)n2C(=O)c1ccc(Cl)cc1,Cc1ccccc1,mol_6205_solute_opt,mol_6205_solvent_opt,50,37,298.15,-2.0703443880095502,Indomethacin,toluene
6206.0,O=C(Nc1ccc(F)cc1F)c1cccnc1Oc1cccc(C(F)(F)F)c1,Cc1ccccc1,mol_6206_solute_opt,mol_6206_solvent_opt,50,30,278.15,-1.3074969766324074,Diflufenican,toluene
6207.0,CC[C@@H](C(N)=O)N1CCCC1=O,Cc1ccccc1,mol_6207_solute_opt,mol_6207_solvent_opt,50,46,283.15,-1.9346182809238224,Levetiracetam,toluene
6208.0,N#CCc1ccc([N+](=O)[O-])cc1,Cc1ccccc1,mol_6208_solute_opt,mol_6208_solvent_opt,50,45,278.15,-1.118103510404611,p-nitrophenylacetonitrile,toluene
6209.0,COc1c(N2CCNC(C)C2)c(F)cc2c(=O)c(C(=O)O)cn(C3CC3)c12,Cc1ccccc1,mol_6209_solute_opt,mol_6209_solvent_opt,50,34,273.15,-3.246327481245162,Gatifloxacin,toluene
6210.0,Nc1cc([N+](=O)[O-])ccc1Cl,Cc1ccccc1,mol_6210_solute_opt,mol_6210_solvent_opt,50,45,273.15,-0.94016795926493,2-chloro-5-nitroaniline,toluene
6211.0,CC(C)(C)NSc1nc2ccccc2s1,Cc1ccccc1,mol_6211_solute_opt,mol_6211_solvent_opt,50,40,273.2,-0.5690443493405284,N-tert-butylbenzothiazole-2-sulfenamide,toluene
6212.0,Nc1nc2c(ncn2COC(CO)CO)c(=O)[nH]1,Cc1ccccc1,mol_6212_solute_opt,mol_6212_solvent_opt,50,36,278.15,-5.79213498170396,Ganciclovir,toluene
6213.0,CC(C)N1C(=O)N(c2ccccc2)CSC1=NC(C)(C)C,Cc1ccccc1,mol_6213_solute_opt,mol_6213_solvent_opt,50,41,273.15,-0.2689332362248829,Buprofezin,toluene
6214.0,CC(=O)N(CC(O)CO)c1c(I)c(C(=O)NCC(O)CO)c(I)c(C(=O)NCC(O)CO)c1I,Cc1ccccc1,mol_6214_solute_opt,mol_6214_solvent_opt,50,29,283.15,-3.6235663708856034,Iohexol,toluene
6215.0,CCOC(=O)[C@@H](C)Oc1ccc(Oc2cnc3cc(Cl)ccc3n2)cc1,Cc1ccccc1,mol_6215_solute_opt,mol_6215_solvent_opt,50,34,273.15,-1.3043438177915865,Quizalofop-p-ethyl,toluene
6216.0,Nc1cccc2c(N)cccc12,Cc1ccccc1,mol_6216_solute_opt,mol_6216_solvent_opt,50,43,273.15,-2.599287724637528,"1,5-Naphthalenediamine",toluene
6217.0,Nc1cccc2cccc(N)c12,Cc1ccccc1,mol_6217_solute_opt,mol_6217_solvent_opt,50,38,273.15,-0.3725232504041507,"1,8-Naphthalenediamine",toluene
6218.0,Cc1cccc(C(=O)O)c1N,Cc1ccccc1,mol_6218_solute_opt,mol_6218_solvent_opt,50,38,278.15,-1.9760586979438248,2-amino-3-methylbenzoic acid,toluene
6219.0,N#Cc1cccc([N+](=O)[O-])c1C#N,Cc1ccccc1,mol_6219_solute_opt,mol_6219_solvent_opt,50,43,278.15,-2.0432053238696537,3-nitrophthalonitrile,toluene
6220.0,Sc1nc2ccccc2[nH]1,Cc1ccccc1,mol_6220_solute_opt,mol_6220_solvent_opt,50,42,278.15,-3.7163027104752047,2-mercaptobenzimidazole,toluene
6221.0,O=Cc1cc([N+](=O)[O-])ccc1O,Cc1ccccc1,mol_6221_solute_opt,mol_6221_solvent_opt,50,42,273.15,-0.94016795926493,5-nitrosalicylaldehyde,toluene
6222.0,N#CCc1ccccc1[N+](=O)[O-],Cc1ccccc1,mol_6222_solute_opt,mol_6222_solvent_opt,50,41,278.15,-0.5403361009046873,o-nitrophenylacetonitrile,toluene
6223.0,OCc1ccc(O[C@@H]2O[C@H](CO)[C@@H](O)[C@H](O)[C@H]2O)cc1,Cc1ccccc1,mol_6223_solute_opt,mol_6223_solvent_opt,50,36,273.15,-1.846300169680348,Gastrodin,toluene
6224.0,O=C1Cc2ccccc2N1,Cc1ccccc1,mol_6224_solute_opt,mol_6224_solvent_opt,50,44,291.95,-1.521431268021301,2-oxindole,toluene
6225.0,N#CC(c1ccc(Cl)cc1)c1c(Cl)cc(-n2ncc(=O)[nH]c2=O)cc1Cl,Cc1ccccc1,mol_6225_solute_opt,mol_6225_solvent_opt,50,44,283.15,-2.6019597652901543,Diclazuril,toluene
6226.0,Fc1c(I)c(F)c(I)c(F)c1I,Cc1ccccc1,mol_6226_solute_opt,mol_6226_solvent_opt,50,45,290.15,-2.7968250145183404,"1,3,5-trifluoro-2,4,6-triiodobenzene",toluene
6227.0,Nc1nnn[nH]1,Cc1ccccc1,mol_6227_solute_opt,mol_6227_solvent_opt,50,45,283.15,-1.8915888263318967,5-aminotetrazole,toluene
6228.0,Cc1cnc(C(=O)O)cn1,Cc1ccccc1,mol_6228_solute_opt,mol_6228_solvent_opt,50,44,273.15,-5.030432961485561,5-methyl-2-pyrazinecarboxylic acid,toluene
6229.0,c1cc(-n2c3ccccc3c3ccccc32)cc(-n2c3ccccc3c3ccccc32)c1,Cc1ccccc1,mol_6229_solute_opt,mol_6229_solvent_opt,50,38,283.15,-0.5903339639434235,"1,3-bis(9-carbazolyl)benzene",toluene
6230.0,N=C(N)NC(N)=S,Cc1ccccc1,mol_6230_solute_opt,mol_6230_solvent_opt,50,46,283.15,-2.921439272756876,Amidinothiourea,toluene
6231.0,CN1CCN(c2c(F)cc3c(=O)c(C(=O)O)cn4c3c2OCN4C)CC1,Cc1ccccc1,mol_6231_solute_opt,mol_6231_solvent_opt,50,39,283.15,-3.3307617259213305,Marbofloxacin,toluene
6232.0,Cc1c(C(=O)O)cc([N+](=O)[O-])cc1[N+](=O)[O-],Cc1ccccc1,mol_6232_solute_opt,mol_6232_solvent_opt,50,43,288.15,-0.7759980917420748,"3,5-dinitro-2-methylbenzoic acid",toluene
6233.0,CC(=O)Oc1ccc(C(c2ccc(OC(C)=O)cc2)c2ccccn2)cc1,Cc1ccccc1,mol_6233_solute_opt,mol_6233_solvent_opt,50,40,273.15,-2.373561308907392,Bisacodyl,toluene
6234.0,COC(=O)C(C)(C)N=NC(C)(C)C(=O)OC,Cc1ccccc1,mol_6234_solute_opt,mol_6234_solvent_opt,50,44,253.45,0.0550746677355721,"2,2′-azobis(2-methylpropionate)",toluene
6235.0,CN(C)Cc1c[nH]c2ccccc12,Cc1ccccc1,mol_6235_solute_opt,mol_6235_solvent_opt,50,46,273.15,-1.4780114519304386,Gramine,toluene
6236.0,ON(Cc1ccccc1)Cc1ccccc1,Cc1ccccc1,mol_6236_solute_opt,mol_6236_solvent_opt,50,45,273.15,-1.382271096130972,"N,N-dibenzylhydroxylamine",toluene
6237.0,COC(=O)C1=C(C)NC(C)=C(C(=O)OCC(C)C)C1c1ccccc1[N+](=O)[O-],Cc1ccccc1,mol_6237_solute_opt,mol_6237_solvent_opt,50,36,278.15,-1.832448692442982,Nisoldipine,toluene
6238.0,Oc1c(Br)cc(Br)c2cccnc12,Cc1ccccc1,mol_6238_solute_opt,mol_6238_solvent_opt,50,45,288.15,-2.240718192360024,"5,7-dibromo-8-hydroxyquinoline",toluene
6239.0,N[C@@H](C(=O)O)c1ccc(O)cc1,Cc1ccccc1,mol_6239_solute_opt,mol_6239_solvent_opt,50,44,278.28,-2.8247077487317376,D-(p-hydroxy)phenylglycine,toluene
6240.0,O=C1CCC(c2ccc(Cl)c(Cl)c2)c2ccccc21,Cc1ccccc1,mol_6240_solute_opt,mol_6240_solvent_opt,50,45,278.18,-0.4094451765708061,"4-(3,4-dichlorophenyl)-1-tetralone",toluene
6241.0,OC[C@@H](O)C(O)[C@@H](O)CO,Cc1ccccc1,mol_6241_solute_opt,mol_6241_solvent_opt,50,46,293.26,-3.425550180737389,Xylitol,toluene
6242.0,c1ccc(P(c2ccccc2)c2ccccc2)cc1,Cc1ccccc1,mol_6242_solute_opt,mol_6242_solvent_opt,50,41,302.4,-0.3096041437429775,Triphenylphosphine,toluene
6243.0,CC1=C(/C=C/C(C)=C/C=C/C(C)=C/C=C/C=C(C)/C=C/C=C(C)/C=C/C2=C(C)CCCC2(C)C)C(C)(C)CCC1,Cc1ccccc1,mol_6243_solute_opt,mol_6243_solvent_opt,50,29,293.15,-1.98659899594051,Β-carotene,toluene
6244.0,C[C@@H]1CC[C@H]2[C@@H](C)C(=O)O[C@@H]3O[C@@]4(C)CC[C@@H]1[C@]32OO4,Cc1ccccc1,mol_6244_solute_opt,mol_6244_solvent_opt,50,43,284.15,-0.7831328075330704,Artemisinin,toluene
6245.0,Brc1c(Br)c(Br)c(Oc2c(Br)c(Br)c(Br)c(Br)c2Br)c(Br)c1Br,Cc1ccccc1,mol_6245_solute_opt,mol_6245_solvent_opt,50,39,283.0,-1.5828103662983095,Decabromodiphenyl ether,toluene
6246.0,COc1ccc(P(=O)(c2ccc(OC)cc2)c2ccc(OC)cc2)cc1,Cc1ccccc1,mol_6246_solute_opt,mol_6246_solvent_opt,50,41,293.16,-2.4700346090883283,Tri(p-methoxyphenyl)phosphine oxide,toluene
6247.0,COc1ccc(P(c2ccc(OC)cc2)c2ccc(OC)cc2)cc1,Cc1ccccc1,mol_6247_solute_opt,mol_6247_solvent_opt,50,39,293.16,-2.482273409992452,Tri(p-methoxyphenyl)phosphine,toluene
6248.0,O=C(O)CCP(=O)(O)c1ccccc1,Cc1ccccc1,mol_6248_solute_opt,mol_6248_solvent_opt,50,39,293.16,-2.318701761235224,2-carboxyethylphenylphosphinic acid,toluene
6249.0,O=P(O)(CO)c1ccccc1,Cc1ccccc1,mol_6249_solute_opt,mol_6249_solvent_opt,50,46,288.15,-2.023736068451854,Hydroxymethylphenylphosphinic acid ,toluene
6250.0,O=P1(O)OCC2(CO1)COP(=O)(O)OC2,Cc1ccccc1,mol_6250_solute_opt,mol_6250_solvent_opt,50,43,293.16,-2.3635358309124377,"3,9-dihydroxy-2,4,8,10-tetraoxa-3,9-diphosphaspiro-[5.5]-undecane-3,9-dioxide",toluene
6251.0,O=P1(Oc2ccccc2)OCC2(CO1)COP(=O)(Oc1ccccc1)OC2,Cc1ccccc1,mol_6251_solute_opt,mol_6251_solvent_opt,50,36,298.17,-1.967652922234162,"3,9-diphenoxy-2,4,8,10-tetraoxa-3,9-diphosphaspiro-[5.5]-undecane-3,9-dioxide",toluene
6252.0,O=C(O)c1ccccc1,Cc1ccccc1,mol_6252_solute_opt,mol_6252_solvent_opt,50,46,278.15,-0.4599667662960277,Benzoic acid,toluene
6253.0,CP(=O)(O)c1ccccc1,Cc1ccccc1,mol_6253_solute_opt,mol_6253_solvent_opt,50,48,293.25,0.1085739769212972,Methylphenylphosphinic acid,toluene