pair_id,SMILES_Solute,SMILES_Solvent,Solute_name,Solvent_name,Total_conformers,Filtered_conformers,Temperature_K,LogS,Compound_Name,Solvent
1593.0,OC(Cn1cncn1)(Cn1cncn1)c1ccc(F)cc1F,CO,mol_1593_solute_opt,mol_1593_solvent_opt,50,23,298.15,-0.4547285248918619,Fluconazole,methanol
1594.0,O=c1c(-c2ccc(O)cc2)coc2cc(O)cc(O)c12,CO,mol_1594_solute_opt,mol_1594_solvent_opt,50,27,288.2,-1.6336109873797358,Genistein,methanol
1595.0,O=c1c(-c2ccc(O)cc2)coc2cc(O)ccc12,CO,mol_1595_solute_opt,mol_1595_solvent_opt,50,28,288.2,-2.3937771441474647,Daidzein,methanol
1596.0,O=C(O)COC(=O)Cc1ccccc1Nc1c(Cl)cccc1Cl,CO,mol_1596_solute_opt,mol_1596_solvent_opt,50,23,294.25,-0.6966274485269083,Aceclofenac,methanol
1597.0,C[N+](C)(C)C[C@H](O)CC(=O)[O-],CO,mol_1597_solute_opt,mol_1597_solvent_opt,50,26,278.15,0.4275130274289564,L-carnitine,methanol
1598.0,CCCCCCCCCCCC(=O)O,CO,mol_1598_solute_opt,mol_1598_solvent_opt,50,15,276.17,-0.0823382147720991,Lauric acid,methanol
1599.0,COC(=O)[C@H](Cc1ccccc1)NC(=O)[C@@H](N)CC(=O)O,CO,mol_1599_solute_opt,mol_1599_solvent_opt,50,23,278.15,-1.873993538824536,Aspartame,methanol
1600.0,Nc1cc(Cl)nnc1Cl,CO,mol_1600_solute_opt,mol_1600_solvent_opt,50,37,295.65,-0.4497748576648785,"4-amino-3,6-dichloropyridazine",methanol
1601.0,NC(CO)(CO)CO,CO,mol_1601_solute_opt,mol_1601_solvent_opt,50,26,293.2,-0.723431079584057,Tris(hydroxymethyl)aminomethane,methanol
1602.0,O=C1N2CN3C(=O)N([N+](=O)[O-])C4C3N(CN3C(=O)N([N+](=O)[O-])C(C23)N1[N+](=O)[O-])C(=O)N4[N+](=O)[O-],CO,mol_1602_solute_opt,mol_1602_solvent_opt,50,19,293.15,-3.6484922977539394,Tetranitrodimerglycoluril (TNDGU),methanol
1603.0,O=[N+]([O-])c1cccc(Cl)c1Cl,CO,mol_1603_solute_opt,mol_1603_solvent_opt,50,33,278.15,-0.5077584047043235,"2,3-dichloronitrobenzene",methanol
1604.0,O=C(O)c1ccc(O)c(O)c1,CO,mol_1604_solute_opt,mol_1604_solvent_opt,50,31,293.15,-0.0644865654616985,Protocatechuic acid,methanol
1605.0,Nc1cc(Cl)cc(Cl)c1,CO,mol_1605_solute_opt,mol_1605_solvent_opt,50,35,278.15,0.370584011513707,"3,5-dichloroaniline",methanol
1606.0,O=C(O)CCCC[C@@H]1SC[C@@H]2NC(=O)N[C@@H]21,CO,mol_1606_solute_opt,mol_1606_solvent_opt,50,25,298.15,-2.7700413904549714,Biotin,methanol
1607.0,CC1(C)COP(=O)(C(C)(O)c2ccccc2)OC1,CO,mol_1607_solute_opt,mol_1607_solvent_opt,50,17,283.35,-0.5479695075760419,"1,3,2-dioxaphosphorinane-2-methanol-α,5,5-trimethyl-α-phenyl-2-oxide",methanol
1608.0,Nc1ccc(S(=O)(=O)O)cc1,CO,mol_1608_solute_opt,mol_1608_solvent_opt,50,39,278.15,-2.2070052061822505,Sulfanilic acid,methanol
1609.0,CC1(C)COC(=O)[C@@H]1O,CO,mol_1609_solute_opt,mol_1609_solvent_opt,50,35,288.15,0.9472884588311904,D-pantolactone,methanol
1610.0,C[C@@H]1O[C@@H](O[C@H]2[C@H](Oc3cc(O)c4c(c3)O[C@H](c3ccc(O)cc3)CC4=O)O[C@H](CO)[C@@H](O)[C@@H]2O)[C@H](O)[C@H](O)[C@H]1O,CO,mol_1610_solute_opt,mol_1610_solvent_opt,50,14,288.15,-1.4053016604866242,Naringin,methanol
1611.0,O=C1C[C@@H](c2ccc(O)cc2)Oc2cc(O)cc(O)c21,CO,mol_1611_solute_opt,mol_1611_solvent_opt,50,25,288.15,-0.6593011042580353,Naringenin,methanol
1612.0,CC(C)c1ccc2sc3ccccc3c(=O)c2c1,CO,mol_1612_solute_opt,mol_1612_solvent_opt,50,23,299.15,-0.8634523434941718,2-Isopropylthioxanthone (ITX),methanol
1613.0,CC(C)(C)c1cc(O)c(C(C)(C)C)cc1O,CO,mol_1613_solute_opt,mol_1613_solvent_opt,50,16,280.95,0.2387845174450631,"2,5-di-tert-butylhydroquinone",methanol
1614.0,Nc1ccc(Cc2ccc(N)cc2)cc1,CO,mol_1614_solute_opt,mol_1614_solvent_opt,50,20,293.15,0.5560347315593093,"4,4′-diaminodiphenylmethane",methanol
1615.0,CC(C)(O)P1(=O)OCC2(CO1)COP(=O)(C(C)(C)O)OC2,CO,mol_1615_solute_opt,mol_1615_solvent_opt,50,23,293.13,-0.8376682806541498,"2,4,8,10-tetraoxa-3,9-diphosphaspiro[5.5]undecane-3,9-dimethanol, α,α,α‘,α‘-tetramethyl-3,9-dioxide",methanol
1616.0,C=C(C)[C@@H]1CC[C@]2(CO)CC[C@]3(C)[C@H](CC[C@@H]4[C@@]5(C)CC[C@H](O)C(C)(C)[C@@H]5CC[C@]43C)[C@@H]12,CO,mol_1616_solute_opt,mol_1616_solvent_opt,50,14,278.2,-2.3469041816802183,Betulin,methanol
1617.0,O=C(O)Cn1cnnn1,CO,mol_1617_solute_opt,mol_1617_solvent_opt,50,36,288.18,0.6261929463263962,1H-Tetrazole-1-acetic Acid,methanol
1618.0,Nc1cccc(N)n1,CO,mol_1618_solute_opt,mol_1618_solvent_opt,50,29,266.15,0.2100610008820706,"2,6-diaminopyridine",methanol
1619.0,O=P1(c2cc(O)ccc2O)Oc2ccccc2-c2ccccc21,CO,mol_1619_solute_opt,mol_1619_solvent_opt,50,22,293.15,-1.5776889206025926,"2-(6-oxido-6H-dibenz[c,e][1,2]oxaphosphorin-6-yl)-1,4-dihydroxy phenylene",methanol
1620.0,CCc1ccc(C(=O)c2ccccc2C(=O)O)cc1,CO,mol_1620_solute_opt,mol_1620_solvent_opt,50,20,279.9,0.2246855656981867,2-(4-ethylbenzoyl)benzoic acid,methanol
1621.0,COc1cc(Cc2cnc(N)nc2N)cc(OC)c1OC,CO,mol_1621_solute_opt,mol_1621_solvent_opt,50,21,277.02,-1.6807381481600017,Trimethoprim,methanol
1622.0,CO[C@H]1/C=C/O[C@@]2(C)Oc3c(C)c(O)c4c(O)c(c(/C=N/N5CCN(C6CCCC6)CC5)c(O)c4c3C2=O)NC(=O)/C(C)=C\C=C\[C@H](C)[C@H](O)[C@@H](C)[C@@H](O)[C@@H](C)[C@H](OC(C)=O)[C@@H]1C,CO,mol_1622_solute_opt,mol_1622_solvent_opt,50,7,278.15,-0.2477256173944596,Rifapentine,methanol
1623.0,CCC[C@@H]1C[C@@H](C(=O)N[C@@H]([C@H]2O[C@H](SC)[C@H](OP(=O)(O)O)[C@@H](O)[C@H]2O)[C@H](C)Cl)N(C)C1,CO,mol_1623_solute_opt,mol_1623_solvent_opt,50,13,286.15,-2.076179968612712,Clindamycin phosphate,methanol
1624.0,CN(C)CCn1[nH]nnc1=S,CO,mol_1624_solute_opt,mol_1624_solvent_opt,50,26,293.05,-2.4131753252153416,1-(2-dimethylaminoethyl)-5-mercapto-1H-tetrazole,methanol
1625.0,O=C(Oc1ccccc1)Oc1ccccc1,CO,mol_1625_solute_opt,mol_1625_solvent_opt,50,25,283.0,-0.6639909236057985,Diphenyl carbonate,methanol
1626.0,C1N2CN3CN1CN(C2)C3,CO,mol_1626_solute_opt,mol_1626_solvent_opt,50,34,299.91,-0.2315584787142832,Hexamethylenetetramine,methanol
1627.0,O=C(Oc1ccccc1)c1ccccc1O,CO,mol_1627_solute_opt,mol_1627_solvent_opt,50,24,283.15,-0.385548203222659,Salol,methanol
1628.0,CN1CCN(c2cc3c(cc2F)c(=O)c(C(=O)O)cn3-c2ccc(F)cc2)CC1,CO,mol_1628_solute_opt,mol_1628_solvent_opt,50,18,293.15,-0.7985692510214181,Difloxacin,methanol
1629.0,CC1=C(/C=C/C(C)=C/C=C/C(C)=C/C=C/C=C(C)/C=C/C=C(C)/C=C/C2=C(C)C(=O)CCC2(C)C)C(C)(C)CCC1=O,CO,mol_1629_solute_opt,mol_1629_solvent_opt,50,15,293.15,-4.190896001324442,Canthaxanthin,methanol
1630.0,O=C(O)c1ccncc1,CO,mol_1630_solute_opt,mol_1630_solvent_opt,50,35,303.85,-1.7445721739105509,Isonicotinic acid,methanol
1631.0,CO[C@H]1O[C@@H]2O[C@@]3(C)CC[C@H]4[C@H](C)CC[C@@H]([C@H]1C)[C@@]24OO3,CO,mol_1631_solute_opt,mol_1631_solvent_opt,50,14,289.45,-0.1734058214719843,β-Artemether,methanol
1632.0,NC[C@H]1O[C@H](O[C@H]2[C@H](O)[C@@H](O[C@H]3O[C@H](CO)[C@@H](O)[C@H](N)[C@H]3O)[C@H](N)C[C@@H]2N)[C@H](N)C[C@@H]1O,CO,mol_1632_solute_opt,mol_1632_solvent_opt,50,15,288.15,-2.495003912319706,Tobramycin,methanol
1633.0,Nc1nc(N)c([N+](=O)[O-])cc1[N+](=O)[O-],CO,mol_1633_solute_opt,mol_1633_solvent_opt,50,39,293.15,-1.3419199812398035,"2,6-diamino-3,5-dinitropyridine and 2,5-dihydroxyterephthalic acid",methanol
1634.0,CP1(=O)OCC2(CO1)COP(C)(=O)OC2,CO,mol_1634_solute_opt,mol_1634_solvent_opt,50,25,289.15,-1.0476148330870103,"3,9-dimethyl-3,9-dioxide-2,4,8,10-tetraoxa-3,9-diphosphaspiro[5.5]undecane",methanol
1636.0,Nc1ncnc2c1ncn2[C@@H]1O[C@H](COP(=O)(O)O)[C@@H](O)[C@H]1O,CO,mol_1636_solute_opt,mol_1636_solvent_opt,50,25,288.15,-3.67087771624573,Adenosine 5′-monophosphate,methanol
1637.0,COc1cnc(Cl)nc1Cl,CO,mol_1637_solute_opt,mol_1637_solvent_opt,50,32,302.37,0.1909013881093821,"2,4-dichloro-5-methoxypyrimidine",methanol
1638.0,C=CC(=O)Nc1cc(F)c(Br)c(F)c1,CO,mol_1638_solute_opt,mol_1638_solvent_opt,50,24,294.25,-0.4496041709252433,"N-[(4-bromo-3,5-difluorine)phenyl]acrylamide",methanol
1639.0,O=C(O)CCCCCC(=O)O,CO,mol_1639_solute_opt,mol_1639_solvent_opt,50,26,300.75,0.609083012092227,Pimelic acid,methanol
1640.0,Nc1ccc(O)c(C(=O)O)c1,CO,mol_1640_solute_opt,mol_1640_solvent_opt,50,36,293.15,-1.4583230698450886,Mesalazine,methanol
1641.0,O=P(c1ccccc1)(c1ccccc1)c1cc(O)ccc1O,CO,mol_1641_solute_opt,mol_1641_solvent_opt,50,23,294.16,-0.8094540173340237,"(2,5-dihydroxyphenyl)diphenyl phosphine oxide",methanol
1642.0,OC[C@H]1O[C@H](O[C@]2(CCl)O[C@H](CCl)[C@@H](O)[C@@H]2O)[C@H](O)[C@@H](O)[C@H]1Cl,CO,mol_1642_solute_opt,mol_1642_solvent_opt,50,21,283.15,-0.1011652415489398,Sucralose,methanol
1643.0,Oc1cc(O)c2cc(O)c(-c3cc(O)c(O)c(O)c3)[o+]c2c1,CO,mol_1643_solute_opt,mol_1643_solvent_opt,50,29,298.15,-4.842142795011567,Delphinidin,methanol
1644.0,CC[C@H](CC[C@@H](C)[C@H]1CC[C@H]2[C@@H]3CC=C4C[C@@H](O)CC[C@]4(C)[C@H]3CC[C@]12C)C(C)C,CO,mol_1644_solute_opt,mol_1644_solvent_opt,50,12,278.15,-2.466530962065665,β-Sitosterol,methanol
1645.0,c1ccc2cc3ccccc3cc2c1,CC(C)O,mol_1645_solute_opt,mol_1645_solvent_opt,50,39,298.15,-2.2721341432277664,Anthracene,isopropanol
1646.0,O=C(C(=O)c1ccccc1)c1ccccc1,CC(C)O,mol_1646_solute_opt,mol_1646_solvent_opt,50,38,298.15,-0.9629294069609492,Benzil,isopropanol
1647.0,CCCCCCCCCCCCCCCCCCCC(=O)OCCO,CC(C)O,mol_1647_solute_opt,mol_1647_solvent_opt,50,24,302.85,-2.587242967024125,Ethylene glycol monoeicosate,isopropanol
1648.0,CCCCCCCCCCCCCCCCCCCCCC(=O)OCCO,CC(C)O,mol_1648_solute_opt,mol_1648_solvent_opt,50,25,305.15,-2.412231525171823,Ethylene glycol monobehenate,isopropanol
1649.0,O=[N+]([O-])c1cccc2ccccc12,CC(C)O,mol_1649_solute_opt,mol_1649_solvent_opt,50,41,298.15,-0.5486328611473185,1-nitronaphthalene,isopropanol
1650.0,CC(=O)NCC(=O)O,CC(C)O,mol_1650_solute_opt,mol_1650_solvent_opt,50,39,278.15,-1.6163319156543827,N-acetylglycine,isopropanol
1651.0,COc1ccc2nc(SCc3ncc(C)c(OC)c3C)[nH]c2c1,CC(C)O,mol_1651_solute_opt,mol_1651_solvent_opt,50,34,280.35,-1.370980051575934,Omeprazole sulfide,isopropanol
1652.0,O=C(O)[C@H](O)[C@@H](O)C(=O)O,CC(C)O,mol_1652_solute_opt,mol_1652_solvent_opt,50,36,281.15,-0.5178555851640438,L-tartaric acid,isopropanol
1653.0,COC1=C(OC)C(=O)C(C/C=C(\C)CC/C=C(\C)CC/C=C(\C)CC/C=C(\C)CC/C=C(\C)CC/C=C(\C)CC/C=C(\C)CC/C=C(\C)CC/C=C(\C)CCC=C(C)C)=C(C)C1=O,CC(C)O,mol_1653_solute_opt,mol_1653_solvent_opt,50,21,270.15,-4.027595475455642,Coenzyme Q10,isopropanol
1654.0,CCCc1nc2c(C)cc(-c3nc4ccccc4n3C)cc2n1Cc1ccc(-c2ccccc2C(=O)O)cc1,CC(C)O,mol_1654_solute_opt,mol_1654_solvent_opt,50,24,288.45,-3.691054105867692,Telmisartan,isopropanol
1655.0,Cc1cc(=O)c(C(=O)N[C@@H](C(=O)N[C@@H]2C(=O)N3C(C(=O)O)=C(CSc4nnnn4C)CS[C@H]23)c2ccc(O)cc2)c[nH]1,CC(C)O,mol_1655_solute_opt,mol_1655_solvent_opt,50,31,278.2,-2.805303949966436,Cefpiramide,isopropanol
1656.0,CO[C@@]1(NC(=O)CSCC#N)C(=O)N2C(C(=O)O)=C(CSc3nnnn3C)CS[C@@H]21,CC(C)O,mol_1656_solute_opt,mol_1656_solvent_opt,50,32,278.15,-3.214076693165529,Cefmetazole acid,isopropanol
1657.0,CC(=O)c1cnccn1,CC(C)O,mol_1657_solute_opt,mol_1657_solvent_opt,50,44,268.35,-1.1535829772438349,Acetylpyrazine,isopropanol
1658.0,Cc1cccc(C(=O)O)c1[N+](=O)[O-],CC(C)O,mol_1658_solute_opt,mol_1658_solvent_opt,50,45,283.15,-0.9320309100773242,3-methyl-2-nitrobenzoic acid,isopropanol
1659.0,O=C(O)CC(=O)O,CC(C)O,mol_1659_solute_opt,mol_1659_solvent_opt,50,43,278.15,0.5058227631408702,Malonic acid,isopropanol
1660.0,CC[C@H](C)[C@H]1O[C@]2(CC[C@@H]1C)C[C@@H]1C[C@@H](C/C=C(\C)[C@@H](O[C@H]3C[C@H](OC)[C@@H](O[C@H]4C[C@H](OC)[C@@H](O)[C@H](C)O4)[C@H](C)O3)[C@@H](C)/C=C/C=C3\CO[C@@H]4[C@H](O)C(C)=C[C@@H](C(=O)O1)[C@]34O)O2,CC(C)O,mol_1660_solute_opt,mol_1660_solvent_opt,50,18,293.2,-0.0240235113465243,Ivermectin,isopropanol
1661.0,COc1ccc(-c2cc(=O)c3c(O)cc(O[C@@H]4O[C@H](CO[C@@H]5O[C@@H](C)[C@H](O)[C@@H](O)[C@H]5O)[C@@H](O)[C@H](O)[C@H]4O)cc3o2)cc1O,CC(C)O,mol_1661_solute_opt,mol_1661_solvent_opt,50,24,298.15,-4.289555685733629,Diosmin,isopropanol
1662.0,O=[N+]([O-])c1cc([N+](=O)[O-])c(Cl)c(Cl)c1Cl,CC(C)O,mol_1662_solute_opt,mol_1662_solvent_opt,50,41,278.15,-1.932105886016256,"2,3,4-trichloro-1,5-dinitrobenzene",isopropanol
1663.0,O=C1c2ccccc2-c2ccccc21,CC(C)O,mol_1663_solute_opt,mol_1663_solvent_opt,50,39,278.15,-0.9331625273745698,9-fluorenone,isopropanol
1664.0,CC(=O)OCC(=O)[C@@]12N=C(C)O[C@@H]1C[C@H]1[C@@H]3CCC4=CC(=O)C=C[C@]4(C)[C@H]3[C@@H](O)C[C@@]12C,CC(C)O,mol_1664_solute_opt,mol_1664_solvent_opt,50,28,293.15,-1.780670447916605,Deflazacort,isopropanol
1665.0,C=C(CC(=O)O)C(=O)O,CC(C)O,mol_1665_solute_opt,mol_1665_solvent_opt,50,35,283.15,0.0527175954281724,Itaconic acid,isopropanol
1666.0,O=C(O)CC(O)(CC(=O)O)C(=O)O,CC(C)O,mol_1666_solute_opt,mol_1666_solvent_opt,50,34,303.2,-0.6774056892408469,Citric acid,isopropanol
1667.0,O=C(O)CC(O)C(=O)O,CC(C)O,mol_1667_solute_opt,mol_1667_solvent_opt,50,39,303.2,-0.3163051066009737,Malic acid,isopropanol
1668.0,c1cc2ccc3cccc4ccc(c1)c2c34,CC(C)O,mol_1668_solute_opt,mol_1668_solvent_opt,50,37,283.35,-1.57488164532978,Pyrene,isopropanol
1669.0,C[C@H]1COc2c(N3CCN(C)CC3)c(F)cc3c(=O)c(C(=O)O)cn1c23,CC(C)O,mol_1669_solute_opt,mol_1669_solvent_opt,50,35,288.15,-2.237604757558835,Levofloxacin,isopropanol
1670.0,CC1(C)COP(=O)(O)OC1c1ccccc1Cl,CC(C)O,mol_1670_solute_opt,mol_1670_solvent_opt,50,34,278.15,-0.8134378702684476,Chlocyphos,isopropanol
1671.0,Cc1c(OCC(F)(F)F)ccnc1CS(=O)c1nc2ccccc2[nH]1,CC(C)O,mol_1671_solute_opt,mol_1671_solvent_opt,50,35,283.15,-1.964606443774772,Lansoprazole,isopropanol
1672.0,O=C(O)CCCCCCC(=O)O,CC(C)O,mol_1672_solute_opt,mol_1672_solvent_opt,50,35,283.15,-0.7123620284436173,Suberic acid,isopropanol
1673.0,O=C(O)CC(S)C(=O)O,CC(C)O,mol_1673_solute_opt,mol_1673_solvent_opt,50,36,278.15,0.170245058886815,Thiomalic acid,isopropanol
1674.0,C/C=C/C(=O)O,CC(C)O,mol_1674_solute_opt,mol_1674_solvent_opt,50,45,278.15,0.6366186766659702,Crotonic acid,isopropanol
1675.0,O=C(O)C[C@H](O)C(=O)O,CC(C)O,mol_1675_solute_opt,mol_1675_solvent_opt,50,38,278.15,0.247008211713327,L-malic acid,isopropanol
1676.0,CCN1CCN(C(=O)N[C@@H](C(=O)N[C@@H]2C(=O)N3C(C(=O)O)=C(CSc4nnnn4C)CS[C@H]23)c2ccc(O)cc2)C(=O)C1=O,CC(C)O,mol_1676_solute_opt,mol_1676_solvent_opt,50,27,278.15,-3.367798300195944,Cefoperazone,isopropanol
1677.0,O=C1C=CC(=O)O1,CC(C)O,mol_1677_solute_opt,mol_1677_solvent_opt,50,44,278.15,-1.083503612110445,Maleic anhydride,isopropanol
1678.0,Cc1nc2n(c(=O)c1CCN1CCC(c3noc4cc(F)ccc34)CC1)CCCC2,CC(C)O,mol_1678_solute_opt,mol_1678_solvent_opt,50,27,278.15,-2.320017798885053,Risperidone,isopropanol
1679.0,CCn1c2ccccc2c2ccccc21,CC(C)O,mol_1679_solute_opt,mol_1679_solvent_opt,50,33,279.15,-1.0612060252631828,N-ethylcarbazole,isopropanol
1680.0,O=C(O)CN(CC(=O)O)CP(=O)(O)O,CC(C)O,mol_1680_solute_opt,mol_1680_solvent_opt,50,42,298.15,-3.192406093225693,N-(phosphonomethyl)iminodiacetic acid,isopropanol
1681.0,Cc1nnc(SCC2=C(C(=O)O)N3C(=O)[C@@H](NC(=O)Cn4cnnn4)[C@H]3SC2)s1,CC(C)O,mol_1681_solute_opt,mol_1681_solvent_opt,50,37,278.15,-4.422744409739892,Cefazolin acid,isopropanol
1682.0,CP(=O)(O)O,CC(C)O,mol_1682_solute_opt,mol_1682_solvent_opt,50,39,288.38,1.0469066829147655,Methylphosphonic acid,isopropanol
1683.0,O=c1ccc2ccccc2o1,CC(C)O,mol_1683_solute_opt,mol_1683_solvent_opt,50,40,278.15,-1.3052536056665165,Coumarin,isopropanol
1684.0,CC(=O)Nc1ccc(O)cc1,CC(C)O,mol_1684_solute_opt,mol_1684_solvent_opt,50,38,273.5,-0.4547727877590181,Paracetamol,isopropanol
1685.0,CC(=O)Oc1ccccc1C(=O)O,CC(C)O,mol_1685_solute_opt,mol_1685_solvent_opt,50,33,274.9,-0.6556120974048465,Aspirin,isopropanol
1686.0,CC(=O)NC[C@H]1CN(c2ccc(N3CCOCC3)c(F)c2)C(=O)O1,CC(C)O,mol_1686_solute_opt,mol_1686_solvent_opt,50,35,283.15,-2.1827211321793163,Linezolid,isopropanol
1687.0,CCCCCOC(=O)Nc1nc(=O)n([C@@H]2O[C@H](C)[C@@H](O)[C@H]2O)cc1F,CC(C)O,mol_1687_solute_opt,mol_1687_solvent_opt,50,36,277.98,-1.834525331161441,Capecitabine,isopropanol
1688.0,Cc1cc(C)c(C(=O)P(=O)(c2ccccc2)c2ccccc2)c(C)c1,CC(C)O,mol_1688_solute_opt,mol_1688_solvent_opt,50,29,273.15,-0.4449601163174102,"(2,4,6-trimethylbenzoyl) diphenylphosphine oxide",isopropanol
1689.0,CC1(C)CCC2=C(O1)c1ccccc1C(=O)C2=O,CC(C)O,mol_1689_solute_opt,mol_1689_solvent_opt,50,40,298.15,-1.309330626989145,β-lapachone,isopropanol
1690.0,Cn1cc([N+](=O)[O-])cn1,CC(C)O,mol_1690_solute_opt,mol_1690_solvent_opt,50,42,283.15,-1.611115400812362,1-methyl-4-nitropyrazole,isopropanol
1691.0,Nc1nc(N)nc(NC2CC2)n1,CC(C)O,mol_1691_solute_opt,mol_1691_solvent_opt,50,31,283.15,-2.211294569133416,Cyromazine,isopropanol
1692.0,O=C(O)c1ccc(-c2ccc(C(=O)O)o2)o1,CC(C)O,mol_1692_solute_opt,mol_1692_solvent_opt,50,40,298.15,-2.886111065206873,"2,2′-bifuran-5,5′-dicarboxylic acid",isopropanol
1693.0,Oc1ccc(/C=C/c2cc(O)cc(O)c2)cc1,CC(C)O,mol_1693_solute_opt,mol_1693_solvent_opt,50,37,278.2,-1.149916651661979,Trans-resveratrol,isopropanol
1694.0,C[C@@H]1CC[C@@]2(OC1)O[C@H]1C[C@H]3[C@@H]4CC=C5C[C@@H](O)CC[C@]5(C)[C@H]4CC[C@]3(C)[C@H]1[C@@H]2C,CC(C)O,mol_1694_solute_opt,mol_1694_solvent_opt,50,26,293.15,-1.961448919559783,Diosgenin,isopropanol
1695.0,CN1c2ccccc2C(=O)N2CCc3c([nH]c4ccccc34)[C@H]21,CC(C)O,mol_1695_solute_opt,mol_1695_solvent_opt,50,31,283.2,-3.0337514839507405,Evodiamine,isopropanol
1696.0,CC(=O)S[C@@H]1CC2=CC(=O)CC[C@]2(C)[C@H]2CC[C@@]3(C)[C@@H](CC[C@@]34CCC(=O)O4)[C@H]12,CC(C)O,mol_1696_solute_opt,mol_1696_solvent_opt,50,30,278.45,-1.8785821620738543,Spironolactone,isopropanol
1697.0,C/C=C/C=C/C(=O)O,CC(C)O,mol_1697_solute_opt,mol_1697_solvent_opt,50,39,285.15,-0.2792987335647196,Sorbic acid,isopropanol
1698.0,O=C(O)C1=C[C@@H](O)[C@@H](O)[C@H](O)C1,CC(C)O,mol_1698_solute_opt,mol_1698_solvent_opt,50,36,303.75,-1.892733660796737,(-)-shikimic acid,isopropanol
1699.0,O=c1c(-c2ccc(O)cc2)coc2cc(O[C@@H]3O[C@H](CO)[C@@H](O)[C@H](O)[C@H]3O)ccc12,CC(C)O,mol_1699_solute_opt,mol_1699_solvent_opt,50,33,283.2,-2.67469045031021,Daidzin,isopropanol
1700.0,O=c1c(-c2ccc(O)cc2)coc2cc(O[C@@H]3O[C@H](CO)[C@@H](O)[C@H](O)[C@H]3O)cc(O)c12,CC(C)O,mol_1700_solute_opt,mol_1700_solvent_opt,50,28,283.2,-3.978509344331476,Genistin,isopropanol
1701.0,O=[N+]([O-])c1cccc2cccc([N+](=O)[O-])c12,CC(C)O,mol_1701_solute_opt,mol_1701_solvent_opt,50,44,273.15,-2.921085206428016,"1,8-dinitronaphthalene",isopropanol
1702.0,Cc1ccc(C(C)C)c(O)c1,CC(C)O,mol_1702_solute_opt,mol_1702_solvent_opt,50,40,279.15,0.8891126268435164,Thymol,isopropanol
1703.0,O=C1NC(=O)c2ccccc21,CC(C)O,mol_1703_solute_opt,mol_1703_solvent_opt,50,39,283.15,-1.6762210546146503,Phthalimide,isopropanol
1704.0,CCOC(=O)Cc1c(C(=O)OCC)sc(N)c1C#N,CC(C)O,mol_1704_solute_opt,mol_1704_solvent_opt,50,38,273.15,-1.507425937418024,Ethyl 5-amino-4-cyano-3-(2-ethoxy-2-oxoethyl)-2-thiophenecarboxylate,isopropanol
1705.0,CNC(=O)NC,CC(C)O,mol_1705_solute_opt,mol_1705_solvent_opt,50,40,288.15,0.8125648042411013,"1,3-dimethylurea",isopropanol
1706.0,O=C1c2cccc(Cl)c2C(=O)N1c1ccccc1,CC(C)O,mol_1706_solute_opt,mol_1706_solvent_opt,50,36,288.15,-3.019861844149047,3-chloro-N-phenylphthalimide,isopropanol
1707.0,CC(=O)O[C@H]1CC[C@@]2(C)C(=CC[C@@H]3[C@@H]2CC[C@]2(C)C(=O)CC[C@@H]32)C1,CC(C)O,mol_1707_solute_opt,mol_1707_solvent_opt,50,33,273.15,-1.544600328201844,Dehydroepiandrosterone acetate,isopropanol
1708.0,C#CC(C)(C)NC(=O)c1cc(Cl)cc(Cl)c1,CC(C)O,mol_1708_solute_opt,mol_1708_solvent_opt,50,35,278.15,-1.5350804110764618,Pronamide,isopropanol
1709.0,O=[N+]([O-])c1ccc(O)c2ncccc12,CC(C)O,mol_1709_solute_opt,mol_1709_solvent_opt,50,43,278.15,-2.17711569797216,5-nitro-8-hydroxyquinoline,isopropanol
1710.0,COc1c(O)cc2c(c1O)[C@@H]1O[C@H](CO)[C@@H](O)[C@H](O)[C@H]1OC2=O,CC(C)O,mol_1710_solute_opt,mol_1710_solvent_opt,50,38,298.15,-1.775004184979987,Bergenin,isopropanol
1711.0,COC(=O)N(OC)c1ccccc1COc1ccn(-c2ccc(Cl)cc2)n1,CC(C)O,mol_1711_solute_opt,mol_1711_solvent_opt,50,32,283.15,-1.482624344693564,Pyraclostrobin,isopropanol
1712.0,Cc1cccc([N+](=O)[O-])c1N,CC(C)O,mol_1712_solute_opt,mol_1712_solvent_opt,50,42,278.15,-0.9384818976644688,2-methyl-6-nitroaniline,isopropanol
1713.0,O=S(=O)(c1ccc(O)cc1)c1ccccc1O,CC(C)O,mol_1713_solute_opt,mol_1713_solvent_opt,50,32,278.15,-0.0302473868370447,"2,4′-dihydroxydiphenyl sulfone",isopropanol
1714.0,Nc1ccc([N+](=O)[O-])cc1[N+](=O)[O-],CC(C)O,mol_1714_solute_opt,mol_1714_solvent_opt,50,42,278.15,-1.9446477571791336,"2,4-dinitroaniline",isopropanol
1715.0,O=Cc1ccc(C=O)cc1,CC(C)O,mol_1715_solute_opt,mol_1715_solvent_opt,50,41,273.15,-1.4558345405331723,Terephthaldialdehyde,isopropanol
1716.0,Cc1cc(C(=O)O)ccc1[N+](=O)[O-],CC(C)O,mol_1716_solute_opt,mol_1716_solvent_opt,50,43,283.15,-0.9318311208231306,3-methyl-4-nitrobenzoic acid,isopropanol