pair_id,SMILES_Solute,SMILES_Solvent,Solute_name,Solvent_name,Total_conformers,Filtered_conformers,Temperature_K,LogS,Compound_Name,Solvent
4801.0,CCOC(=O)Cc1c(C(=O)OCC)sc(N)c1C#N,CCCCO,mol_4801_solute_opt,mol_4801_solvent_opt,50,32,273.15,-1.6432517745989517,Ethyl 5-amino-4-cyano-3-(2-ethoxy-2-oxoethyl)-2-thiophenecarboxylate,n-butanol
4803.0,CC(=O)O[C@H]1CC[C@@]2(C)C(=CC[C@@H]3[C@@H]2CC[C@]2(C)C(=O)CC[C@@H]32)C1,CCCCO,mol_4803_solute_opt,mol_4803_solvent_opt,50,34,273.15,-1.2944273063798113,Dehydroepiandrosterone acetate,n-butanol
4804.0,O=C1c2cccc(O)c2C(=O)c2c(O)cc(CO)cc21,CCCCO,mol_4804_solute_opt,mol_4804_solvent_opt,50,44,278.15,-3.2937337262686115,Aloe-emodin,n-butanol
4805.0,N=C(Nc1ccccc1)Nc1ccccc1,CCCCO,mol_4805_solute_opt,mol_4805_solvent_opt,50,31,273.15,-0.6913782761472981,"1,3-diphenylguanidine",n-butanol
4806.0,O=[N+]([O-])c1ccc(O)c2ncccc12,CCCCO,mol_4806_solute_opt,mol_4806_solvent_opt,50,40,278.15,-2.17275875668175,5-nitro-8-hydroxyquinoline,n-butanol
4807.0,COc1c(O)cc2c(c1O)[C@@H]1O[C@H](CO)[C@@H](O)[C@H](O)[C@H]1OC2=O,CCCCO,mol_4807_solute_opt,mol_4807_solvent_opt,50,34,298.15,-2.3849097600460225,Bergenin,n-butanol
4808.0,COC(=O)N(OC)c1ccccc1COc1ccn(-c2ccc(Cl)cc2)n1,CCCCO,mol_4808_solute_opt,mol_4808_solvent_opt,50,38,283.15,-1.2279502497233965,Pyraclostrobin,n-butanol
4809.0,O=S(=O)(c1ccc(O)cc1)c1ccccc1O,CCCCO,mol_4809_solute_opt,mol_4809_solvent_opt,50,38,278.15,-0.173476545030464,"2,4′-dihydroxydiphenyl sulfone",n-butanol
4810.0,Nc1ccc([N+](=O)[O-])cc1[N+](=O)[O-],CCCCO,mol_4810_solute_opt,mol_4810_solvent_opt,50,43,278.15,-1.7977878113902068,"2,4-dinitroaniline",n-butanol
4811.0,O=Cc1ccc(C=O)cc1,CCCCO,mol_4811_solute_opt,mol_4811_solvent_opt,50,42,273.15,-1.000726240472528,Terephthaldialdehyde,n-butanol
4812.0,Cc1cc(C(=O)O)ccc1[N+](=O)[O-],CCCCO,mol_4812_solute_opt,mol_4812_solvent_opt,50,45,283.15,-1.1249377987456295,3-methyl-4-nitrobenzoic acid,n-butanol
4813.0,CC1=NN(c2ccc(C)cc2)C(=O)C1,CCCCO,mol_4813_solute_opt,mol_4813_solvent_opt,50,37,278.15,-0.6726954144198585,"2,4-dihydro-5-methyl-2-(4-methylphenyl)-3H-pyrazol-3-one",n-butanol
4814.0,O=C(O)c1ccccc1Nc1ccccc1,CCCCO,mol_4814_solute_opt,mol_4814_solvent_opt,50,33,283.15,-1.0249608978520723,N-phenylanthranilic acid,n-butanol
4815.0,Cc1ccc(S(C)(=O)=O)cc1,CCCCO,mol_4815_solute_opt,mol_4815_solvent_opt,50,34,278.15,-1.3428101121659195,1-methyl-4-(methylsulfonyl)benzene,n-butanol
4816.0,C=CC(=O)N1CCC[C@@H](n2nc(-c3ccc(Oc4ccccc4)cc3)c3c(N)ncnc32)C1,CCCCO,mol_4816_solute_opt,mol_4816_solvent_opt,50,32,278.15,-1.8512107208985185,Ibrutinib,n-butanol
4817.0,NC(=O)N1c2ccccc2CC(=O)c2ccccc21,CCCCO,mol_4817_solute_opt,mol_4817_solvent_opt,50,43,288.15,-2.5598335852458574,Oxcarbazepine,n-butanol
4818.0,O=Cc1ccc([N+](=O)[O-])cc1,CCCCO,mol_4818_solute_opt,mol_4818_solvent_opt,50,42,273.15,-0.8761459879631309,4-nitrobenzaldehyde,n-butanol
4819.0,C[C@@H]1O[C@@H](OC[C@H]2O[C@@H](Oc3c(-c4ccc(OCCO)c(OCCO)c4)oc4cc(OCCO)cc(O)c4c3=O)[C@H](O)[C@@H](O)[C@@H]2O)[C@H](O)[C@H](O)[C@H]1O,CCCCO,mol_4819_solute_opt,mol_4819_solvent_opt,50,24,288.15,-3.056491596384324,Troxerutin,n-butanol
4820.0,CC(C)(C)[C@H](O)[C@H](Cc1ccc(Cl)cc1)n1cncn1,CCCCO,mol_4820_solute_opt,mol_4820_solvent_opt,50,34,278.15,-0.8242482009013777,Paclobutrazol,n-butanol
4821.0,CC(C)C(=O)OCC(=O)[C@@]12O[C@H](C3CCCCC3)O[C@@H]1C[C@H]1[C@@H]3CCC4=CC(=O)C=C[C@]4(C)[C@H]3[C@@H](O)C[C@@]12C,CCCCO,mol_4821_solute_opt,mol_4821_solvent_opt,50,29,278.15,-0.1000684180403868,Ciclesonide,n-butanol
4822.0,Cc1cc([N+](=O)[O-])ccc1N,CCCCO,mol_4822_solute_opt,mol_4822_solvent_opt,50,40,278.15,-1.2612818616202368,2-methyl-4-nitroaniline,n-butanol
4823.0,O=Cc1cccc([N+](=O)[O-])c1,CCCCO,mol_4823_solute_opt,mol_4823_solvent_opt,50,39,273.15,-0.6306483101620305,3-nitrobenzaldehyde,n-butanol
4824.0,Nc1ccc([N+](=O)[O-])cc1N,CCCCO,mol_4824_solute_opt,mol_4824_solvent_opt,50,44,283.15,-2.306292879532047,"4-nitro-1,2-phenylenediamine",n-butanol
4825.0,Nc1cc(Cl)ccc1C(=O)O,CCCCO,mol_4825_solute_opt,mol_4825_solvent_opt,50,40,278.15,-1.067027863295526,2-amino-4-chlorobenzoic acid,n-butanol
4826.0,Clc1ccc2c(c1)Nc1ccccc1S2,CCCCO,mol_4826_solute_opt,mol_4826_solvent_opt,50,40,283.15,-1.440669528008582,2-chlorophenothiazine,n-butanol
4827.0,COc1cc(CO)ccc1O,CCCCO,mol_4827_solute_opt,mol_4827_solvent_opt,50,37,293.15,-0.5821672587317335,Vanillyl alcohol,n-butanol
4828.0,Cc1ccc(N)c([N+](=O)[O-])c1,CCCCO,mol_4828_solute_opt,mol_4828_solvent_opt,50,45,278.15,-0.8486429234151951,4-methyl-2-nitroaniline,n-butanol
4829.0,Cc1cc(C)[nH]n1,CCCCO,mol_4829_solute_opt,mol_4829_solvent_opt,50,44,283.15,0.2293898634495256,"3,5-dimethylpyrazole",n-butanol
4830.0,NC(=O)c1cnccn1,CCCCO,mol_4830_solute_opt,mol_4830_solvent_opt,50,40,278.15,-2.0676136412214023,Pyrazinamide,n-butanol
4831.0,S=c1[nH]c2ccccc2s1,CCCCO,mol_4831_solute_opt,mol_4831_solvent_opt,50,43,273.15,-0.6470874640007852,2-mercaptobenzothiazole,n-butanol
4832.0,Cc1c(C(N)=O)cc([N+](=O)[O-])cc1[N+](=O)[O-],CCCCO,mol_4832_solute_opt,mol_4832_solvent_opt,50,39,283.15,-1.995040806700396,Dinitolmide,n-butanol
4833.0,C=NCC#N,CCCCO,mol_4833_solute_opt,mol_4833_solvent_opt,50,43,278.15,-2.2748413732030808,Methyleneaminoacetonitrile,n-butanol
4834.0,Cc1c([N+](=O)[O-])c(C)c([N+](=O)[O-])c(C(C)(C)C)c1[N+](=O)[O-],CCCCO,mol_4834_solute_opt,mol_4834_solvent_opt,50,40,278.15,-1.5660463080809763,Musk xylene,n-butanol
4835.0,COC(=O)Nc1nc2ccc(Sc3ccccc3)cc2[nH]1,CCCCO,mol_4835_solute_opt,mol_4835_solvent_opt,50,37,273.15,-3.082826725297248,Fenbendazole,n-butanol
4836.0,O=P1(O)Oc2ccc3ccccc3c2-c2c(ccc3ccccc23)O1,CCCCO,mol_4836_solute_opt,mol_4836_solvent_opt,50,39,288.15,-1.1129696013120316,"1,1′-binaphthyl-2,2′-diyl hydrogenphosphate",n-butanol
4837.0,CC(C)Oc1ccc2c(=O)c(-c3ccccc3)coc2c1,CCCCO,mol_4837_solute_opt,mol_4837_solvent_opt,50,34,278.15,-1.7347367304661194,Ipriflavone,n-butanol
4838.0,O=C(O)CCc1nc(-c2ccccc2)c(-c2ccccc2)o1,CCCCO,mol_4838_solute_opt,mol_4838_solvent_opt,50,36,278.15,-1.529527947250066,Oxaprozin,n-butanol
4839.0,COCCOC(=O)C1=C(C)NC(C)=C(C(=O)OC(C)C)C1c1cccc([N+](=O)[O-])c1,CCCCO,mol_4839_solute_opt,mol_4839_solvent_opt,50,31,278.15,-0.925632387143486,Nimodipine,n-butanol
4840.0,CC(=O)Nc1ccc(OC(=O)c2ccccc2OC(C)=O)cc1,CCCCO,mol_4840_solute_opt,mol_4840_solvent_opt,50,34,278.15,-2.475428226680723,Benorilate,n-butanol
4841.0,CCCCN(CCCC)CC(O)c1cc(Cl)cc2c1-c1ccc(Cl)cc1/C2=C/c1ccc(Cl)cc1,CCCCO,mol_4841_solute_opt,mol_4841_solvent_opt,50,33,278.15,-2.817836176417093,Benflumetol,n-butanol
4842.0,CS(=O)(=O)OCCCCOS(C)(=O)=O,CCCCO,mol_4842_solute_opt,mol_4842_solvent_opt,50,47,278.15,-4.12305448046134,Busulfan,n-butanol
4843.0,CN1CCN(C2=Nc3cc(Cl)ccc3Nc3ccccc32)CC1,CCCCO,mol_4843_solute_opt,mol_4843_solvent_opt,50,34,278.15,-1.143671002509142,Clozapine,n-butanol
4844.0,CC(=O)Nc1ccc(C(=O)O)cc1,CCCCO,mol_4844_solute_opt,mol_4844_solvent_opt,50,32,283.15,-1.268729615118685,p-acetamidobenzoic acid,n-butanol
4845.0,Clc1ncnc2[nH]ccc12,CCCCO,mol_4845_solute_opt,mol_4845_solvent_opt,50,45,278.15,-0.8642360591481203,6-chloro-7-azapurine,n-butanol
4846.0,Nc1nc2ccc(OC(F)(F)F)cc2s1,CCCCO,mol_4846_solute_opt,mol_4846_solvent_opt,50,39,278.15,0.3993811949458576,Riluzole,n-butanol
4847.0,O=C(O)COc1ccc(Cl)cc1Cl,CCCCO,mol_4847_solute_opt,mol_4847_solvent_opt,50,40,278.15,-0.21549114634803,"2,4-dichlorophenoxyacetic acid",n-butanol
4848.0,S=C(Nc1ccccc1)Nc1ccccc1,CCCCO,mol_4848_solute_opt,mol_4848_solvent_opt,50,31,283.15,-1.8532158639188987,"N,N'-diphenyl thiourea (DPTU)",n-butanol
4849.0,CC(=O)NC1CCSC1=O,CCCCO,mol_4849_solute_opt,mol_4849_solvent_opt,50,39,278.15,-0.5569013161541502,Citiolone,n-butanol
4850.0,CC(CO)(CO)C(=O)O,CCCCO,mol_4850_solute_opt,mol_4850_solvent_opt,50,41,288.15,-1.1332400232292137,Dimethylolpropionic acid,n-butanol
4851.0,O=C1CCc2cc(O)ccc2N1,CCCCO,mol_4851_solute_opt,mol_4851_solvent_opt,50,38,278.15,-1.697100986243003,"6-hydroxy-3,4-dihydro-2(1H)-quinolone",n-butanol
4852.0,O=c1cc(CO)occ1O,CCCCO,mol_4852_solute_opt,mol_4852_solvent_opt,50,38,278.15,-1.6691700391282576,Kojic acid,n-butanol
4853.0,CC(C)OC(=O)[C@H](C)N[P@](=O)(Oc1ccccc1)Oc1c(F)c(F)c(F)c(F)c1F,CCCCO,mol_4853_solute_opt,mol_4853_solvent_opt,50,37,278.15,-2.0458716915061284,SOV-I2,n-butanol
4854.0,O=[N+]([O-])c1cc([N+](=O)[O-])c(Cl)c([N+](=O)[O-])c1Cl,CCCCO,mol_4854_solute_opt,mol_4854_solvent_opt,50,40,298.15,-1.884736184079536,"1,3-dichloro-2,4,6-trinitrobenzene",n-butanol
4855.0,Nc1cc(C(=O)O)ccc1C(=O)O,CCCCO,mol_4855_solute_opt,mol_4855_solvent_opt,50,38,303.15,-1.1046725915119069,2-aminoterephthalic acid,n-butanol
4856.0,CC(=O)N1CCN(c2ccc(O)cc2)CC1,CCCCO,mol_4856_solute_opt,mol_4856_solvent_opt,50,41,283.15,-1.8829714214365376,1-[4-(4-hydroxyphenyl)piperazin-1-yl]ethenone,n-butanol
4857.0,O=C1CCC(=O)CC1,CCCCO,mol_4857_solute_opt,mol_4857_solvent_opt,50,47,278.15,-0.8975524370528156,"1,4-cyclohexanedione",n-butanol
4858.0,O=C(O)c1cccnc1,CCCCO,mol_4858_solute_opt,mol_4858_solvent_opt,50,42,283.15,-1.8108350154413275,Nicotinic acid,n-butanol
4859.0,CCC(C)n1ncn(-c2ccc(N3CCN(c4ccc(OCC5COC(Cn6cncn6)(c6ccc(Cl)cc6Cl)O5)cc4)CC3)cc2)c1=O,CCCCO,mol_4859_solute_opt,mol_4859_solvent_opt,50,27,288.15,-3.8042740804040784,Itraconazole,n-butanol
4860.0,CCOc1cccc(C=O)c1O,CCCCO,mol_4860_solute_opt,mol_4860_solvent_opt,50,39,278.15,-0.7362414133651637,3-ethoxysalicylaldehyde,n-butanol
4861.0,COc1ccc2cccc(CCNC(C)=O)c2c1,CCCCO,mol_4861_solute_opt,mol_4861_solvent_opt,50,39,278.15,-0.9573860370756194,Agomelatine,n-butanol
4862.0,Clc1cccnc1Cl,CCCCO,mol_4862_solute_opt,mol_4862_solvent_opt,50,45,278.15,-0.2442036133776991,"2,3-dichloropyridine",n-butanol
4863.0,Nc1nc(N)c2nc(-c3ccccc3)c(N)nc2n1,CCCCO,mol_4863_solute_opt,mol_4863_solvent_opt,50,39,283.15,-4.436955527399348,Triamterene,n-butanol
4864.0,O=C(O)/C=C/c1ccc(Cl)cc1,CCCCO,mol_4864_solute_opt,mol_4864_solvent_opt,50,38,283.15,-1.8671318669566377,trans-4-chlorocinnamic acid,n-butanol
4865.0,NC(N)=O,CCCCO,mol_4865_solute_opt,mol_4865_solvent_opt,50,44,293.15,-0.7423414631788415,Urea,n-butanol
4866.0,Cc1ncc([N+](=O)[O-])n1CCO,CCCCO,mol_4866_solute_opt,mol_4866_solvent_opt,50,45,293.15,-1.2329460000630317,Metronidazole,n-butanol
4867.0,Cc1cccc(N(C)C(=S)Oc2ccc3ccccc3c2)c1,CCCCO,mol_4867_solute_opt,mol_4867_solvent_opt,50,35,283.15,-2.0434013694519244,Tolnaftate,n-butanol
4868.0,O=C(O)c1cccc([N+](=O)[O-])c1,CCCCO,mol_4868_solute_opt,mol_4868_solvent_opt,50,41,298.2,0.2691700136916615,3-nitrobenzoic acid,n-butanol
4869.0,OC[C@@H](O)[C@@H](O)[C@H](O)[C@@H](O)CO,CCCCO,mol_4869_solute_opt,mol_4869_solvent_opt,50,38,278.15,-2.3031249633641866,D-sorbitol,n-butanol
4870.0,CN1C(C(=O)Nc2ccccn2)=C(O)c2sc(Cl)cc2S1(=O)=O,CCCCO,mol_4870_solute_opt,mol_4870_solvent_opt,50,39,298.15,-3.830168784006531,Lornoxicam,n-butanol
4871.0,CCOC(=O)Cc1c(C(=O)OCC)sc(N(CC(=O)OCC)CC(=O)OCC)c1C#N,CCCCO,mol_4871_solute_opt,mol_4871_solvent_opt,50,31,283.15,-2.3647806519439465,Tetraethyl ranelate,n-butanol
4872.0,CN(Cc1ccccc1)CN1C(=O)C(=NNC(=O)c2ccccc2OCc2ccccc2)c2ccccc21,CCCCO,mol_4872_solute_opt,mol_4872_solvent_opt,50,31,298.15,-2.083142068256888,N′-(1-(n-(methyl) benzylaminomethyl)-2-oxoindolin-3-ylidene)-2-(benzyloxy) benzohydrazide,n-butanol
4873.0,COc1cc(/C=C/C(=O)O)cc(OC)c1O,CCCCO,mol_4873_solute_opt,mol_4873_solvent_opt,50,41,298.15,-1.4119407572640026,Sinapic acid,n-butanol
4874.0,COc1cc(-c2cc(-c3ccc(Br)cc3)[nH]c(=O)c2C#N)ccc1O,CCCCO,mol_4874_solute_opt,mol_4874_solvent_opt,50,34,298.15,-2.435035852170588,"6-(4-bromophenyl)-4-(4-hydroxy-3-methoxyphenyl)-2-oxo-1,2-dihydropyridine-3-carbonitrile",n-butanol
4875.0,COc1cc(-c2cc(-c3ccc(Cl)cc3)[nH]c(=O)c2C#N)ccc1O,CCCCO,mol_4875_solute_opt,mol_4875_solvent_opt,50,34,298.15,-2.3615884855895817,"6-(4-chlorophenyl)-4-(4-hydroxy-3-methoxyphenyl)-2-oxo-1,2-dihydropyridine-3-carbonitrile",n-butanol
4876.0,COc1cc(-c2cc(-c3ccc(F)cc3)[nH]c(=O)c2C#N)ccc1O,CCCCO,mol_4876_solute_opt,mol_4876_solvent_opt,50,34,298.15,-2.2382247739382266,"6-(4-fluorophenyl)-4-(4-hydroxy-3-methoxyphenyl)-2-oxo-1,2-dihydropyridine-3-carbonitrile",n-butanol
4877.0,COc1cc(-c2cc(-c3ccc(O)cc3)[nH]c(=O)c2C#N)ccc1O,CCCCO,mol_4877_solute_opt,mol_4877_solvent_opt,50,33,298.15,-2.2553258901199813,"4-(4-hydroxy-3-methoxyphenyl)-6-(4-hydroxyphenyl)-2-oxo-1,2-dihydropyridine-3 -carbonitrile",n-butanol
4878.0,COc1ccc(-c2cc(-c3ccc(O)c(OC)c3)c(C#N)c(=O)[nH]2)cc1,CCCCO,mol_4878_solute_opt,mol_4878_solvent_opt,50,34,298.15,-2.4903895546705974,"4-(4-hydroxy-3-methoxyphenyl)-6-(4-methoxyphenyl)-2-oxo-1,2-dihydropyridine-3-carbonitrile",n-butanol
4879.0,CCOc1ccc(C2NC(=O)NC=C2C(=O)c2cc(OC)c(OC)c(OC)c2)cc1,CCCCO,mol_4879_solute_opt,mol_4879_solvent_opt,50,35,298.15,-2.136052381772029,"4-(4-ethoxyphenyl)-5-(3,4,5 trimethoxybenzoyl)-3,4-dihydropyrimidine-2(1H)-one (DHP-5)",n-butanol
4880.0,O=C(O)/C=C/c1ccc(O)c(O)c1,CCCCO,mol_4880_solute_opt,mol_4880_solvent_opt,50,40,293.15,-1.0030108772915771,Caffeic acid,n-butanol
4881.0,C=C1CC[C@H](O)C/C1=C/C=C1\CCC[C@]2(C)[C@@H]([C@H](C)CCCC(C)C)CC[C@@H]12,CCCCO,mol_4881_solute_opt,mol_4881_solvent_opt,50,34,273.2,0.2964937630654787,Vitamin D3,n-butanol
4882.0,OCCCCCCO,CCCCO,mol_4882_solute_opt,mol_4882_solvent_opt,50,40,283.15,0.7062555042678457,"1,6-hexanediol",n-butanol
4883.0,COc1cc(/C=C/C(=O)O)ccc1O,CCCCO,mol_4883_solute_opt,mol_4883_solvent_opt,50,41,298.2,-0.7498500559423673,Ferulic acid,n-butanol
4884.0,O=Cc1ccc(O)cc1,CCCCO,mol_4884_solute_opt,mol_4884_solvent_opt,50,39,278.15,-0.1944943724528984,4-hydroxybenzaldehyde,n-butanol
4885.0,O=C(O)CNC(=O)c1ccccc1,CCCCO,mol_4885_solute_opt,mol_4885_solvent_opt,50,39,298.15,-1.0704686082552963,Hippuric acid,n-butanol
4886.0,O=C1CCC(c2ccccc2)=NN1,CCCCO,mol_4886_solute_opt,mol_4886_solvent_opt,50,39,293.2,-1.283834219936531,"6-phenyl-4,5-dihydropyridazin-3(2H)-one",n-butanol
4887.0,O=C(O)c1ccccc1Nc1cccc(C(F)(F)F)c1,CCCCO,mol_4887_solute_opt,mol_4887_solvent_opt,50,37,298.2,0.1668460815767122,Flufenamic acid,n-butanol
4888.0,CCN(CC)CC(=O)Nc1c(C)cccc1C,CCCCO,mol_4888_solute_opt,mol_4888_solvent_opt,50,32,292.15,-1.1522785644452471,Lidocaine,n-butanol
4889.0,O=C(c1ccccc1)C(O)c1ccccc1,CCCCO,mol_4889_solute_opt,mol_4889_solvent_opt,50,42,283.15,-2.0880182727843657,Benzoin,n-butanol
4890.0,NCCCCCCN,CCCCO,mol_4890_solute_opt,mol_4890_solvent_opt,50,41,278.15,0.7761609241722299,"1,6-hexanediamine",n-butanol
4891.0,Cc1occc(=O)c1O,CCCCO,mol_4891_solute_opt,mol_4891_solvent_opt,50,44,288.15,-1.1080445034849076,Maltol,n-butanol
4892.0,Cc1c(N)c(=O)n(-c2ccccc2)n1C,CCCCO,mol_4892_solute_opt,mol_4892_solvent_opt,50,41,299.05,0.2825980753960614,4-aminoantipyrine,n-butanol
4893.0,COc1c(C)c2c(c(O)c1C/C=C(\C)CCC(=O)OCCN1CCOCC1)C(=O)OC2,CCCCO,mol_4893_solute_opt,mol_4893_solvent_opt,50,31,298.2,-0.9255853236060804,Mycophenolate mofetil,n-butanol
4894.0,O=C(/C=C/C=C/c1ccc2c(c1)OCO2)N1CCCCC1,CCCCO,mol_4894_solute_opt,mol_4894_solvent_opt,50,34,298.2,-0.7637719780800738,Piperine,n-butanol
4895.0,O=c1cc(-c2ccc(O)c(O)c2)oc2cc(O)cc(O)c12,CCCCO,mol_4895_solute_opt,mol_4895_solvent_opt,50,40,298.2,-1.4372228354614387,Luteolin,n-butanol
4896.0,O=c1[nH]c2ccccc2n1CCCN1CCC(n2c(=O)[nH]c3cc(Cl)ccc32)CC1,CCCCO,mol_4896_solute_opt,mol_4896_solvent_opt,50,32,278.15,-3.8670705517147104,Domperidone,n-butanol
4897.0,Cc1cc(=O)n(-c2ccccc2)n1C,CCCCO,mol_4897_solute_opt,mol_4897_solvent_opt,50,39,288.15,0.2870560050167522,Antipyrine,n-butanol
4898.0,O=C(O)c1cccc2ccccc12,CCCCO,mol_4898_solute_opt,mol_4898_solvent_opt,50,38,293.15,-0.4714661419401108,1-naphthoic acid,n-butanol
4899.0,CC1=CC(=O)C(C(C)C)=CC1=O,CCCCO,mol_4899_solute_opt,mol_4899_solvent_opt,50,36,298.2,-0.1633435008326376,Thymoquinone,n-butanol
4900.0,COc1ccc(-c2nn(-c3ccccc3)cc2/C=C/C(=O)c2nc3ccccc3[nH]2)cc1,CCCCO,mol_4900_solute_opt,mol_4900_solvent_opt,50,34,298.15,-1.8381084503431844,(E)‑1‑(1H‑benzo[d]imidazole‑2‑yl)‑3‑(3‑(4‑methxyphenyl)‑1‑phenyl‑1H‑pyrazol‑4‑yl) prop‑2‑en‑1-one,n-butanol
4901.0,COc1ccc(-c2nn(-c3ccccc3)cc2/C=C/C(=O)c2nc3ccccc3[nH]2)cc1OC,CCCCO,mol_4901_solute_opt,mol_4901_solvent_opt,50,32,298.15,-2.760611392876046,"(E)‑1‑(1H‑benzo[d]imidazole‑2‑yl)‑3‑(3‑(3,4‑dimethoxyphenyl)‑1‑phenyl‑1H‑pyrazol‑4‑yl)prop‑2‑en‑1-one",n-butanol
4902.0,COc1cccc(-c2nn(-c3ccccc3)cc2/C=C/C(=O)c2nc3ccccc3[nH]2)c1,CCCCO,mol_4902_solute_opt,mol_4902_solvent_opt,50,30,298.15,-2.7329354054342723,(E)‑1‑(1H‑benzo[d]imidazole‑2‑yl)‑3‑(3‑methxyphenyl‑1H‑pyrazol‑4‑yl)prop‑2‑en-1-one,n-butanol
4903.0,O=C(/C=C/c1cn(-c2ccccc2)nc1-c1ccc(Cl)cc1)c1nc2ccccc2[nH]1,CCCCO,mol_4903_solute_opt,mol_4903_solvent_opt,50,30,298.15,-2.786978430223193,(E)‑1‑(1H‑benzo[d]imidazole‑2‑yl)‑3‑(3‑(4‑chlorophenyl)‑phenyl‑1H‑pyrazol‑4‑yl) prop‑2‑en‑1-one,n-butanol
4904.0,O=C(/C=C/c1cn(-c2ccccc2)nc1-c1ccc(F)cc1)c1nc2ccccc2[nH]1,CCCCO,mol_4904_solute_opt,mol_4904_solvent_opt,50,41,298.15,-1.7637370423408214,(E)‑1‑(1H‑benzo[d]imidazole‑2‑yl)‑3‑(3‑(4‑fluorophenyl)‑1H‑pyrazol‑4‑yl)pop‑2‑en‑1-one,n-butanol
4906.0,O=C(/C=C/c1cn(-c2ccccc2)nc1-c1ccccc1)c1nc2ccccc2[nH]1,CCCCO,mol_4906_solute_opt,mol_4906_solvent_opt,50,34,298.15,-2.5696800041675294,"(E)‑1‑(1H‑benzo[d]imidazole‑2‑yl)‑3‑(1, 3‑diphenyl‑1H‑pyrazol‑4‑yl) prop‑2‑en‑1-one",n-butanol
4907.0,O=C(/C=C/c1cn(-c2ccccc2)nc1-c1ccccc1Cl)c1nc2ccccc2[nH]1,CCCCO,mol_4907_solute_opt,mol_4907_solvent_opt,50,28,298.15,-2.494943142195208,(E)‑1‑(1H‑benzo[d]imidazole‑2-yl)‑3‑(3‑(2‑chlorophenyl)‑1‑phenyl‑1H‑pyrazol‑4‑yl) prop‑2‑en‑1-one,n-butanol
4909.0,NC(=O)c1ccccc1,CCCCO,mol_4909_solute_opt,mol_4909_solvent_opt,50,40,283.15,-0.4552887155675496,Benzamide,n-butanol
4910.0,O=C(NC(Cc1cc(=O)[nH]c2ccccc12)C(=O)O)c1ccc(Cl)cc1,CCCCO,mol_4910_solute_opt,mol_4910_solvent_opt,50,33,288.15,-3.221605245433297,Rebamipide,n-butanol
4913.0,COC(=O)c1cc(O)c(O)c(O)c1,CCCCO,mol_4913_solute_opt,mol_4913_solvent_opt,50,34,293.15,-0.3970103917538475,Methyl gallate,n-butanol
4914.0,Cc1ccc(S(N)(=O)=O)cc1,CCCCO,mol_4914_solute_opt,mol_4914_solvent_opt,50,46,273.15,-1.0901780168474895,p-Toluenesulfonamide,n-butanol
4915.0,COc1ccccc1OCCNCC(O)COc1cccc2[nH]c3ccccc3c12,CCCCO,mol_4915_solute_opt,mol_4915_solvent_opt,50,30,288.15,-2.128092082934589,Carvedilol,n-butanol
4916.0,COc1cc2ncnc(Nc3ccc(F)c(Cl)c3)c2cc1OCCCN1CCOCC1,CCCCO,mol_4916_solute_opt,mol_4916_solvent_opt,50,28,298.2,-1.8425773927911715,Gefitinib,n-butanol
4917.0,Cc1c[nH]c(=O)[nH]c1=O,CCCCO,mol_4917_solute_opt,mol_4917_solvent_opt,50,44,283.15,-2.777093055963621,Thymine,n-butanol
4918.0,CC1(C)[C@H](C(=O)O)[C@@H]1/C=C(\Cl)C(F)(F)F,CCCCO,mol_4918_solute_opt,mol_4918_solvent_opt,50,39,283.15,-0.0497172858660619,Cyhalothric acid,n-butanol
4919.0,c1ccc(-c2cc3ccccc3[nH]2)cc1,CCCCO,mol_4919_solute_opt,mol_4919_solvent_opt,50,35,296.95,-0.8686473054353612,2-phenyl-1H-indole,n-butanol
4920.0,C[C@]12CC[C@@H]3c4ccc(O)cc4CC[C@H]3[C@@H]1CC[C@@H]2O,CCCCO,mol_4920_solute_opt,mol_4920_solvent_opt,50,40,273.15,1.0533934291063431,Estradiol,n-butanol
4921.0,C[C@@H](O[C@H]1OCCN(Cc2n[nH]c(=O)[nH]2)[C@H]1c1ccc(F)cc1)c1cc(C(F)(F)F)cc(C(F)(F)F)c1,CCCCO,mol_4921_solute_opt,mol_4921_solvent_opt,50,32,285.45,-1.897699785918484,Aprepitant,n-butanol
4922.0,OC[C@H]1O[C@@H](c2ccc(Cl)c(Cc3ccc(O[C@H]4CCOC4)cc3)c2)[C@H](O)[C@@H](O)[C@@H]1O,CCCCO,mol_4922_solute_opt,mol_4922_solvent_opt,50,36,278.15,-4.697886985437186,Empagliflozin,n-butanol
4923.0,CC(=O)Oc1ccc(C(c2ccc(OC(C)=O)cc2)c2ccccn2)cc1,CCCCO,mol_4923_solute_opt,mol_4923_solvent_opt,50,32,288.15,-2.365053066670858,Bisacodyl,n-butanol
4925.0,CC(C)C(N)=O,CCCCO,mol_4925_solute_opt,mol_4925_solvent_opt,50,42,273.15,-0.1949320382931992,Isobutyramide,n-butanol
4926.0,Cc1ccc(S(=O)(=O)NC(=O)NN2CC3CCCC3C2)cc1,CCCCO,mol_4926_solute_opt,mol_4926_solvent_opt,50,46,278.15,-2.1604381126840018,Gliclazide,n-butanol
4927.0,CCc1cccc2c3c([nH]c12)C(CC)(CC(=O)O)OCC3,CCCCO,mol_4927_solute_opt,mol_4927_solvent_opt,50,43,278.15,-0.3694090528207561,Etodolac,n-butanol
4928.0,O=C(c1ccc(F)cc1)c1ccc(F)cc1,CCCCO,mol_4928_solute_opt,mol_4928_solvent_opt,50,36,293.15,-0.9154700026327258,"4,4′-difluorobenzophenone",n-butanol
4929.0,CC1=CC(=O)c2ccccc2C1=O,CCCCO,mol_4929_solute_opt,mol_4929_solvent_opt,50,46,278.15,-1.4565776881305437,Vitamin K3,n-butanol
4930.0,CCCOC(=O)c1cc(O)c(O)c(O)c1,CCCCO,mol_4930_solute_opt,mol_4930_solvent_opt,50,36,293.15,0.5448439979044678,Propyl gallate,n-butanol