pair_id,SMILES_Solute,SMILES_Solvent,Solute_name,Solvent_name,Total_conformers,Filtered_conformers,Temperature_K,LogS,Compound_Name,Solvent
4285.0,Clc1ncnc2[nH]ccc12,CC(C)=O,mol_4285_solute_opt,mol_4285_solvent_opt,50,41,278.15,-0.6855888543701455,6-chloro-7-azapurine,acetone
4286.0,O=C(/C=C/C=C/c1ccc2c(c1)OCO2)N1CCCCC1,CC(C)=O,mol_4286_solute_opt,mol_4286_solvent_opt,50,24,278.15,-1.169079292463946,Piperine,acetone
4287.0,Nc1nc2ccc(OC(F)(F)F)cc2s1,CC(C)=O,mol_4287_solute_opt,mol_4287_solvent_opt,50,41,278.15,0.9132882198947035,Riluzole,acetone
4288.0,O=C(O)COc1ccc(Cl)cc1Cl,CC(C)=O,mol_4288_solute_opt,mol_4288_solvent_opt,50,35,278.15,0.223414915133933,"2,4-dichlorophenoxyacetic acid",acetone
4289.0,CC(CO)(CO)C(=O)O,CC(C)=O,mol_4289_solute_opt,mol_4289_solvent_opt,50,35,288.15,-1.455262670538609,Dimethylolpropionic acid,acetone
4290.0,CNC(=O)c1cc(Oc2ccc(NC(=O)Nc3ccc(Cl)c(C(F)(F)F)c3)c(F)c2)ccn1,CC(C)=O,mol_4290_solute_opt,mol_4290_solvent_opt,50,26,278.15,-1.710196009765946,Regorafenib,acetone
4291.0,CCS(=O)(=O)CCn1c([N+](=O)[O-])cnc1C,CC(C)=O,mol_4291_solute_opt,mol_4291_solvent_opt,50,33,278.15,-0.915586637101101,Tinidazole,acetone
4292.0,Cn1c(=O)c2c(ncn2CC2OCCO2)n(C)c1=O,CC(C)=O,mol_4292_solute_opt,mol_4292_solvent_opt,50,29,278.15,-1.0927895417139877,Doxofylline,acetone
4293.0,CC(C)OC(=O)[C@H](C)N[P@](=O)(Oc1ccccc1)Oc1c(F)c(F)c(F)c(F)c1F,CC(C)=O,mol_4293_solute_opt,mol_4293_solvent_opt,50,28,278.15,-0.888654468149012,SOV-I2,acetone
4294.0,O=[N+]([O-])c1cc([N+](=O)[O-])c(Cl)c([N+](=O)[O-])c1Cl,CC(C)=O,mol_4294_solute_opt,mol_4294_solvent_opt,50,43,293.15,0.1170599021055656,"1,3-dichloro-2,4,6-trinitrobenzene",acetone
4295.0,CCOC(=O)OC1=C(c2cc(C)ccc2C)C(=O)NC12CCC(OC)CC2,CC(C)=O,mol_4295_solute_opt,mol_4295_solvent_opt,50,22,278.15,-0.7710453582624325,Spirotetramat,acetone
4296.0,O=C(O)COc1ccc2ccccc2c1,CC(C)=O,mol_4296_solute_opt,mol_4296_solvent_opt,50,38,278.15,-0.2599676866531804,2-naphthoxyacetic acid,acetone
4297.0,O=c1c2ccccc2sc2ccccc12,CC(C)=O,mol_4297_solute_opt,mol_4297_solvent_opt,50,36,292.15,-1.584085534987187,9H-thioxanthen-9-one,acetone
4298.0,CC(=O)c1c(C)cc(C(C)(C)C)cc1C,CC(C)=O,mol_4298_solute_opt,mol_4298_solvent_opt,50,27,273.15,0.7941691771735401,"1-(4-tert-butyl-2,6-dimethylphenyl)ethenone",acetone
4299.0,COc1cc(/C=C/C(=O)O)cc(OC)c1OC,CC(C)=O,mol_4299_solute_opt,mol_4299_solvent_opt,50,28,278.15,-0.6059744763665457,"3,4,5-trimethoxycinnamic acid",acetone
4300.0,O=C1CCC(=O)CC1,CC(C)=O,mol_4300_solute_opt,mol_4300_solvent_opt,50,43,278.15,0.4756409474244438,"1,4-cyclohexanedione",acetone
4301.0,CC(C)[C@@H](C)[C@@H](O)[C@H](O)[C@@H](C)[C@H]1CC[C@H]2[C@@H]3COC(=O)[C@H]4C[C@H](O)[C@H](O)C[C@]4(C)[C@H]3CC[C@]12C,CC(C)=O,mol_4301_solute_opt,mol_4301_solvent_opt,50,23,283.15,-1.7010124886453573,"2,4-epibrassinolide",acetone
4302.0,Nc1cncc(Cl)n1,CC(C)=O,mol_4302_solute_opt,mol_4302_solvent_opt,50,42,278.15,-0.7821356043874191,2-amino-6-chloropyrazine,acetone
4303.0,CCCSc1ccc2nc(NC(=O)OC)[nH]c2c1,CC(C)=O,mol_4303_solute_opt,mol_4303_solvent_opt,50,38,278.15,-1.67701130415051,Albendazole,acetone
4304.0,CCOc1cccc(C=O)c1O,CC(C)=O,mol_4304_solute_opt,mol_4304_solvent_opt,50,35,278.15,0.4078674536509136,3-ethoxysalicylaldehyde,acetone
4305.0,C1=Cc2ccccc2Nc2ccccc21,CC(C)=O,mol_4305_solute_opt,mol_4305_solvent_opt,50,29,278.15,-0.6403242874057745,Iminostilbene,acetone
4306.0,COc1ccc(Cl)cc1C(=O)NCCc1ccc(S(=O)(=O)NC(=O)NC2CCCCC2)cc1,CC(C)=O,mol_4306_solute_opt,mol_4306_solvent_opt,50,34,283.15,-2.212959478433877,Glyburide,acetone
4307.0,CC(C)(C)C(=O)C(Oc1ccc(Cl)cc1)n1ccnc1,CC(C)=O,mol_4307_solute_opt,mol_4307_solvent_opt,50,35,288.15,0.3734565872743014,Climbazole,acetone
4308.0,N#CN=C(N)N,CC(C)=O,mol_4308_solute_opt,mol_4308_solvent_opt,50,41,283.15,-1.0551362219910096,Dicyandiamide,acetone
4309.0,CC(=O)C1C(=O)C=C(C)OC1=O,CC(C)=O,mol_4309_solute_opt,mol_4309_solvent_opt,50,38,288.15,-0.1632627386583633,Dehydroacetic acid,acetone
4310.0,O=C(O)/C=C/c1ccc(Cl)cc1,CC(C)=O,mol_4310_solute_opt,mol_4310_solvent_opt,50,42,283.15,-1.5278959123811302,trans-4-chlorocinnamic acid,acetone
4311.0,CCOc1ccc2ccccc2c1C(=O)O,CC(C)=O,mol_4311_solute_opt,mol_4311_solvent_opt,50,22,278.15,-0.1046135626008267,2-ethoxy-1-naphthoic acid,acetone
4312.0,CC1COC(Cn2cncn2)(c2ccc(Oc3ccc(Cl)cc3)cc2Cl)O1,CC(C)=O,mol_4312_solute_opt,mol_4312_solvent_opt,50,25,278.15,-1.1195268238191636,Difenoconazole,acetone
4313.0,N#Cc1ccc(C(c2ccc(C#N)cc2)n2cncn2)cc1,CC(C)=O,mol_4313_solute_opt,mol_4313_solvent_opt,50,37,283.15,-0.6855016323839451,Letrozole,acetone
4314.0,CCC(C)n1ncn(-c2ccc(N3CCN(c4ccc(OCC5COC(Cn6cncn6)(c6ccc(Cl)cc6Cl)O5)cc4)CC3)cc2)c1=O,CC(C)=O,mol_4314_solute_opt,mol_4314_solvent_opt,50,24,298.15,-2.0648293125201542,Itraconazole,acetone
4315.0,c1ccc(-c2cnc(-c3ccc(-c4ncc(-c5ccccc5)o4)cc3)o2)cc1,CC(C)=O,mol_4315_solute_opt,mol_4315_solvent_opt,50,27,298.15,-2.755245664329941,"1,4-bis(5-phenyl-oxazolyl-2)benzene (POPOP)",acetone
4316.0,c1ccc(-c2cnc(-c3ccccc3)o2)cc1,CC(C)=O,mol_4316_solute_opt,mol_4316_solvent_opt,50,32,298.15,0.7418941705903489,"2,5-diphenyl-1,3-oxazole (PPO)",acetone
4317.0,O=C(O)c1cn(C2CC2)c2cc(N3CCNCC3)c(F)cc2c1=O,CC(C)=O,mol_4317_solute_opt,mol_4317_solvent_opt,50,27,293.15,-3.898558605376833,Ciprofloxacin,acetone
4318.0,Cc1cc(C)nc(NS(=O)(=O)c2ccc(N)cc2)n1,CC(C)=O,mol_4318_solute_opt,mol_4318_solvent_opt,50,39,293.15,-3.707373022940625,Sulfamethazine,acetone
4319.0,O=C1CCC(=O)O1,CC(C)=O,mol_4319_solute_opt,mol_4319_solvent_opt,50,48,278.15,0.0335016062714946,Succinic anhydride,acetone
4320.0,OC[C@@H](O)[C@@H](O)[C@H](O)[C@@H](O)CO,CC(C)=O,mol_4320_solute_opt,mol_4320_solvent_opt,50,34,278.15,-2.504652238360574,D-sorbitol,acetone
4321.0,N#CNC(=N)N,CC(C)=O,mol_4321_solute_opt,mol_4321_solvent_opt,50,38,278.15,-0.9822339540208096,2-cyanoguanidine,acetone
4322.0,COc1c(NS(=O)(=O)c2ccc(C)cc2)cc(-c2ccc3ncnc(N4CCOCC4)c3c2)cc1C(N)=O,CC(C)=O,mol_4322_solute_opt,mol_4322_solvent_opt,50,19,288.15,-2.059588467394726,2-methoxy-3-(4-methylphenylsulfonamido)-5-(4-morpholinoquinazolin-6-yl)benzamide,acetone
4323.0,COc1c(NS(=O)(=O)c2ccc(F)cc2)cc(-c2ccc3nccc(N4CCOCC4)c3c2)cc1C(N)=O,CC(C)=O,mol_4323_solute_opt,mol_4323_solvent_opt,50,26,288.15,-2.0788154850287115,3-(4-fluorophenylsulfonamido)-2-methoxy-5-(4-morpholinoquinolin-6-yl)benzamide,acetone
4324.0,COc1c(NS(=O)(=O)c2ccc(F)cc2)cc(-c2ccc3ncnc(N4CCOCC4)c3c2)cc1C(N)=O,CC(C)=O,mol_4324_solute_opt,mol_4324_solvent_opt,50,22,288.15,-2.3617558763143736,3-(4-fluorophenylsulfonamido)-2-methoxy-5-(4-morpholinoquinazolin-6-yl)benzamide,acetone
4325.0,O=P(NC1CCCCC1)(Oc1ccccc1)Oc1ccccc1,CC(C)=O,mol_4325_solute_opt,mol_4325_solvent_opt,50,25,293.15,-0.203969641707769,Cyclohexyl-phosphoramidic acid diphenyl ester,acetone
4326.0,CCOC(=O)Cc1c(C(=O)OCC)sc(N(CC(=O)OCC)CC(=O)OCC)c1C#N,CC(C)=O,mol_4326_solute_opt,mol_4326_solvent_opt,50,30,283.15,-0.2832646857069571,Tetraethyl ranelate,acetone
4327.0,O=P(O)(O)c1ccccc1,CC(C)=O,mol_4327_solute_opt,mol_4327_solvent_opt,50,41,288.15,0.3337437352908766,Phenylphosphonic acid,acetone
4328.0,CN1CCN(C(=O)O[C@H]2c3nccnc3C(=O)N2c2ccc(Cl)cn2)CC1,CC(C)=O,mol_4328_solute_opt,mol_4328_solvent_opt,50,25,288.15,-1.7494080946760409,Eszopiclone,acetone
4329.0,O=[N+]([O-])c1cccc2c([N+](=O)[O-])cccc12,CC(C)=O,mol_4329_solute_opt,mol_4329_solvent_opt,50,40,273.15,-2.006341429679904,"1,5-dinitro-naphthalen",acetone
4330.0,O=C(O)/C=C/c1ccc(O)c(O)c1,CC(C)=O,mol_4330_solute_opt,mol_4330_solvent_opt,50,36,293.15,-0.3252959572490038,Caffeic acid,acetone
4331.0,Cc1cnc(N)s1,CC(C)=O,mol_4331_solute_opt,mol_4331_solvent_opt,50,44,278.15,-0.1424998423669921,2-amino-5-methylthiazole,acetone
4332.0,CCOC(=O)CCC(=O)O[C@H]1[C@H](O[C@@H]2[C@@H](C)[C@H](O[C@H]3C[C@@](C)(OC)[C@@H](O)[C@H](C)O3)[C@@H](C)C(=O)O[C@H](CC)[C@@](C)(O)[C@H](O)[C@@H](C)C(=O)[C@H](C)C[C@@]2(C)O)O[C@H](C)C[C@@H]1N(C)C,CC(C)=O,mol_4332_solute_opt,mol_4332_solvent_opt,50,12,288.15,-0.7154049219623111,Erythromycin ethylsuccinate,acetone
4333.0,O=Cc1ccc(O)cc1,CC(C)=O,mol_4333_solute_opt,mol_4333_solvent_opt,50,41,278.15,0.0283471835698937,4-hydroxybenzaldehyde,acetone
4334.0,CCN(CC)CC(=O)Nc1c(C)cccc1C,CC(C)=O,mol_4334_solute_opt,mol_4334_solvent_opt,50,30,292.15,-1.0430735508677624,Lidocaine,acetone
4335.0,CCCCCCCCCCCCCCCCOc1nc2ccc(C)cc2c(=O)o1,CC(C)=O,mol_4335_solute_opt,mol_4335_solvent_opt,50,19,278.15,0.0905073959133417,Cetilistat,acetone
4336.0,O=C(c1ccccc1)C(O)c1ccccc1,CC(C)=O,mol_4336_solute_opt,mol_4336_solvent_opt,50,30,283.15,-0.8987689368569836,Benzoin,acetone
4337.0,CC(=O)Nc1cccc(N)c1,CC(C)=O,mol_4337_solute_opt,mol_4337_solvent_opt,50,38,278.15,-0.1356860846779219,"N-acetyl-1,3-phenylenediamine",acetone
4338.0,Cc1occc(=O)c1O,CC(C)=O,mol_4338_solute_opt,mol_4338_solvent_opt,50,42,288.15,-0.8528804332306628,Maltol,acetone
4339.0,Cc1c(N)c(=O)n(-c2ccccc2)n1C,CC(C)=O,mol_4339_solute_opt,mol_4339_solvent_opt,50,31,299.05,0.8989909012226927,4-aminoantipyrine,acetone
4340.0,CC(C)(C)c1cc(CCC(=O)NCCCCCCNC(=O)CCc2cc(C(C)(C)C)c(O)c(C(C)(C)C)c2)cc(C(C)(C)C)c1O,CC(C)=O,mol_4340_solute_opt,mol_4340_solvent_opt,50,17,283.15,-1.5285056157533266,"1,6-bis[3-(3,5-di-tert-butyl-4-hydroxyphenyl)propionamido]hexane",acetone
4341.0,OC[C@H]1O[C@@H](Oc2c(O)cc(O)cc2/C=C/c2ccc(O)cc2)[C@H](O)[C@@H](O)[C@@H]1O,CC(C)=O,mol_4341_solute_opt,mol_4341_solvent_opt,50,23,278.15,-0.7670472099756159,"2,3,5,4′-tetrahydroxystilbene-2-o-β-d-glucoside",acetone
4342.0,Cc1cnc(C(=O)O)c[n+]1[O-],CC(C)=O,mol_4342_solute_opt,mol_4342_solvent_opt,50,47,283.15,-1.6627139853595607,Acipimox,acetone
4343.0,Cc1cc(=O)n(-c2ccccc2)n1C,CC(C)=O,mol_4343_solute_opt,mol_4343_solvent_opt,50,35,288.15,-0.1416653172591806,Antipyrine,acetone
4344.0,Cc1ccc2c(c1)C(=O)OC2=O,CC(C)=O,mol_4344_solute_opt,mol_4344_solvent_opt,50,38,278.15,0.3058569935252942,4-methylphthalic anhydride,acetone
4345.0,NC(=O)N/N=C/c1ccc([N+](=O)[O-])o1,CC(C)=O,mol_4345_solute_opt,mol_4345_solvent_opt,50,38,278.15,-2.382586780605855,5-nitrofurazone,acetone
4346.0,Nc1ccc(S(=O)(=O)c2ccc(N)cc2)cc1,CC(C)=O,mol_4346_solute_opt,mol_4346_solvent_opt,50,24,283.15,-0.0368164169652991,Dapsone,acetone
4347.0,NC(=O)c1ccccc1,CC(C)=O,mol_4347_solute_opt,mol_4347_solvent_opt,50,38,283.15,-0.1312537343994169,Benzamide,acetone
4348.0,CC1(C)S[C@@H]2[C@H](NC(=O)[C@H](NC(=O)N3CCNC3=O)c3ccccc3)C(=O)N2[C@H]1C(=O)O,CC(C)=O,mol_4348_solute_opt,mol_4348_solvent_opt,50,26,278.15,-2.164753655491859,Azlocillin,acetone
4349.0,O=C(NC(Cc1cc(=O)[nH]c2ccccc12)C(=O)O)c1ccc(Cl)cc1,CC(C)=O,mol_4349_solute_opt,mol_4349_solvent_opt,50,36,288.15,-3.8585859561272895,Rebamipide,acetone
4350.0,NC(=O)Cc1ccccc1,CC(C)=O,mol_4350_solute_opt,mol_4350_solvent_opt,50,36,273.75,-0.8472991759133658,2-phenylacetamide,acetone
4352.0,COC(=O)c1cc(O)c(O)c(O)c1,CC(C)=O,mol_4352_solute_opt,mol_4352_solvent_opt,50,38,293.15,0.144016001154533,Methyl gallate,acetone
4353.0,Cc1ccc(S(N)(=O)=O)cc1,CC(C)=O,mol_4353_solute_opt,mol_4353_solvent_opt,50,41,273.15,0.3134184646186752,p-Toluenesulfonamide,acetone
4354.0,COc1ccccc1OCCNCC(O)COc1cccc2[nH]c3ccccc3c12,CC(C)=O,mol_4354_solute_opt,mol_4354_solvent_opt,50,33,288.15,-0.7605388075967932,Carvedilol,acetone
4355.0,CC(=O)OC(c1ccccc1)C(Cl)(Cl)Cl,CC(C)=O,mol_4355_solute_opt,mol_4355_solvent_opt,50,38,288.15,0.1483756789559444,Alpha-(trichloromethyl) benzyl acetate,acetone
4356.0,COc1ccc2c(c1)c(CC(=O)O)c(C)n2C(=O)c1ccc(Cl)cc1,CC(C)=O,mol_4356_solute_opt,mol_4356_solvent_opt,50,32,293.0,-0.5960415903332257,Indomethacin,acetone
4357.0,O=C1Cc2cc(F)ccc2N1,CC(C)=O,mol_4357_solute_opt,mol_4357_solvent_opt,50,37,278.15,-0.0909999313273592,5-fluoro-2-oxindole,acetone
4358.0,O=C1C2C3C=CC(C3)C2C(=O)N1O,CC(C)=O,mol_4358_solute_opt,mol_4358_solvent_opt,50,39,278.15,-0.4206777721822336,"N-hydroxy-5-norbornene-2,3-dicarboximide",acetone
4359.0,Cc1c[nH]c(=O)[nH]c1=O,CC(C)=O,mol_4359_solute_opt,mol_4359_solvent_opt,50,39,283.15,-2.8101954754269616,Thymine,acetone
4360.0,c1ccc(-c2cc3ccccc3[nH]2)cc1,CC(C)=O,mol_4360_solute_opt,mol_4360_solvent_opt,50,34,289.05,0.1582406082905283,2-phenyl-1H-indole,acetone
4361.0,C[C@]12CC[C@@H]3c4ccc(O)cc4CC[C@H]3[C@@H]1CC[C@@H]2O,CC(C)=O,mol_4361_solute_opt,mol_4361_solvent_opt,50,36,273.15,0.959359610196806,Estradiol,acetone
4362.0,C[C@@H](O[C@H]1OCCN(Cc2n[nH]c(=O)[nH]2)[C@H]1c1ccc(F)cc1)c1cc(C(F)(F)F)cc(C(F)(F)F)c1,CC(C)=O,mol_4362_solute_opt,mol_4362_solvent_opt,50,34,284.75,-1.1493484683573842,Aprepitant,acetone
4363.0,CC(=O)Oc1ccc(C(c2ccc(OC(C)=O)cc2)c2ccccn2)cc1,CC(C)=O,mol_4363_solute_opt,mol_4363_solvent_opt,50,29,288.15,-0.7640711124040113,Bisacodyl,acetone
4364.0,CC(C)C(N)=O,CC(C)=O,mol_4364_solute_opt,mol_4364_solvent_opt,50,39,273.15,-0.8805579226613361,Isobutyramide,acetone
4365.0,O=C1OC(=O)C2C3C=CC(O3)C12,CC(C)=O,mol_4365_solute_opt,mol_4365_solvent_opt,50,46,278.15,-0.2603239591460958,"Exo-3,6-epoxy-1,2,3,6-tetrahydrophthalic anhydride",acetone
4366.0,Cc1ccc(S(=O)(=O)NC(=O)NN2CC3CCCC3C2)cc1,CC(C)=O,mol_4366_solute_opt,mol_4366_solvent_opt,50,36,278.15,-0.9069284288443454,Gliclazide,acetone
4367.0,CCc1cccc2c3c([nH]c12)C(CC)(CC(=O)O)OCC3,CC(C)=O,mol_4367_solute_opt,mol_4367_solvent_opt,50,28,278.15,0.1566137878895596,Etodolac,acetone
4368.0,O=C(c1ccc(F)cc1)c1ccc(F)cc1,CC(C)=O,mol_4368_solute_opt,mol_4368_solvent_opt,50,37,293.15,0.1367516165267778,"4,4′-difluorobenzophenone",acetone
4369.0,CC1=CC(=O)c2ccccc2C1=O,CC(C)=O,mol_4369_solute_opt,mol_4369_solvent_opt,50,40,278.15,-0.3593273523230919,Vitamin K3,acetone
4370.0,CCCOC(=O)c1cc(O)c(O)c(O)c1,CC(C)=O,mol_4370_solute_opt,mol_4370_solvent_opt,50,39,293.15,0.7479541586159362,Propyl gallate,acetone
4371.0,O=C1c2ccccc2C(=O)N1O,CC(C)=O,mol_4371_solute_opt,mol_4371_solvent_opt,50,39,278.15,-0.98217513178619,N-hydroxyphthalimide,acetone
4372.0,CC(=O)[C@H]1CC[C@H]2[C@@H]3CCC4=CC(=O)CC[C@]4(C)[C@H]3CC[C@]12C,CC(C)=O,mol_4372_solute_opt,mol_4372_solvent_opt,50,26,278.15,-0.6959269923495135,Progesterone,acetone
4373.0,CC(C)C(=O)Nc1ccc([N+](=O)[O-])c(C(F)(F)F)c1,CC(C)=O,mol_4373_solute_opt,mol_4373_solvent_opt,50,33,278.15,0.5011237048588426,Flutamide,acetone
4374.0,O=c1cc(-c2ccccc2)oc2cc(O)cc(O)c12,CC(C)=O,mol_4374_solute_opt,mol_4374_solvent_opt,50,33,293.2,-1.7578131717021588,Chrysin,acetone
4375.0,N#CCNC(=O)c1cnccc1C(F)(F)F,CC(C)=O,mol_4375_solute_opt,mol_4375_solvent_opt,50,35,283.15,-0.2887519482118041,Flonicamid,acetone
4376.0,CC1Cc2ccccc2N1NC(=O)c1ccc(Cl)c(S(N)(=O)=O)c1,CC(C)=O,mol_4376_solute_opt,mol_4376_solvent_opt,50,30,278.15,-0.5381338220531792,Indapamide,acetone
4377.0,Nc1nc(NC2CC2)c2ncn([C@H]3C=C[C@@H](CO)C3)c2n1,CC(C)=O,mol_4377_solute_opt,mol_4377_solvent_opt,50,30,278.15,-1.7971740057675285,Abacavir,acetone
4378.0,NS(=O)(=O)c1ccccc1C(=O)[O-],CC(C)=O,mol_4378_solute_opt,mol_4378_solvent_opt,50,39,273.15,-0.2186294825335969,Methyl 2-sulfamoylbenzoate,acetone
4379.0,O=[N+]([O-])N=C1NCCN1Cc1ccc(Cl)nc1,CC(C)=O,mol_4379_solute_opt,mol_4379_solvent_opt,50,38,283.15,-0.9207859903959532,Imidacloprid,acetone
4380.0,COc1cc(/C=C/C(=O)CC(=O)/C=C/c2ccc(O)c(OC)c2)ccc1O,CC(C)=O,mol_4380_solute_opt,mol_4380_solvent_opt,50,27,278.15,-0.9321292287956772,Curcumin,acetone
4381.0,O=[N+]([O-])c1cn[nH]c1,CC(C)=O,mol_4381_solute_opt,mol_4381_solvent_opt,50,47,288.15,-0.2646428920956108,4-nitropyrazole,acetone
4382.0,O=[N+]([O-])c1cc[nH]n1,CC(C)=O,mol_4382_solute_opt,mol_4382_solvent_opt,50,42,283.15,-0.7443038633593089,3-nitro-1H-pyrazole,acetone
4383.0,CC(C)[C@H](C)[C@@H](O)[C@H](O)[C@@H](C)[C@H]1CC[C@H]2[C@@H]3COC(=O)[C@H]4C[C@H](O)[C@H](O)C[C@]4(C)[C@H]3CC[C@]12C,CC(C)=O,mol_4383_solute_opt,mol_4383_solvent_opt,50,23,278.15,0.138162567954581,Brassinolide,acetone
4384.0,O=C(O)c1cc(=O)[nH]c(=O)[nH]1,CC(C)=O,mol_4384_solute_opt,mol_4384_solvent_opt,50,46,278.15,-3.888445496213695,Orotic acid,acetone
4385.0,Cn1cc[nH]c1=S,CC(C)=O,mol_4385_solute_opt,mol_4385_solvent_opt,50,40,278.15,-0.2096823363154417,Methimazole,acetone
4386.0,CC(=O)Nc1ccc(CC(=O)O)cc1,CC(C)=O,mol_4386_solute_opt,mol_4386_solvent_opt,50,38,278.15,-1.2915018236506617,Actarit,acetone
4387.0,C=C1CCN([C@H](C)[C@](O)(Cn2cncn2)c2ccc(F)cc2F)CC1,CC(C)=O,mol_4387_solute_opt,mol_4387_solvent_opt,50,30,288.15,0.6435986777918877,Efinaconazole,acetone
4388.0,OCCN1CCN(CCCN2c3ccccc3Sc3ccc(Cl)cc32)CC1,CC(C)=O,mol_4388_solute_opt,mol_4388_solvent_opt,50,22,278.15,-1.2511740409701826,Perphenazine,acetone
4389.0,O=C(O)CCC(=O)c1ccc(-c2ccccc2)cc1,CC(C)=O,mol_4389_solute_opt,mol_4389_solvent_opt,50,30,278.15,-1.5457759458899931,Fenbufen,acetone
4390.0,Cc1c(-c2ccccc2)oc2c(C(=O)O)cccc2c1=O,CC(C)=O,mol_4390_solute_opt,mol_4390_solvent_opt,50,36,278.15,-1.577123987326705,3-methylflavone-8-carboxylic acid,acetone
4391.0,CC(=O)c1c(C)c2cnc(Nc3ccc(N4CCNCC4)cn3)nc2n(C2CCCC2)c1=O,CC(C)=O,mol_4391_solute_opt,mol_4391_solvent_opt,50,25,293.15,-3.1081650381414296,Palbociclib,acetone
4392.0,O=C(c1ccccc1)c1ccc(Cl)cc1,CC(C)=O,mol_4392_solute_opt,mol_4392_solvent_opt,50,38,278.15,0.118252655835568,4-chlorobenzophenone,acetone
4393.0,O=c1c2ccccc2sc2ccc(Cl)cc12,CC(C)=O,mol_4393_solute_opt,mol_4393_solvent_opt,50,30,289.15,-1.4758674693185476,2-chlorothioxanthone (CTX),acetone
4394.0,CC(N)=S,CC(C)=O,mol_4394_solute_opt,mol_4394_solvent_opt,50,43,272.85,0.3734650308577376,Thioacetamide,acetone
4395.0,O=[N+]([O-])c1cccc2ccccc12,CC(C)=O,mol_4395_solute_opt,mol_4395_solvent_opt,50,34,273.15,0.3771375305793592,1-nitronaphthalene,acetone
4396.0,O=[N+]([O-])c1cc([N+](=O)[O-])c(Nc2nc(Nc3c([N+](=O)[O-])cc([N+](=O)[O-])cc3[N+](=O)[O-])c([N+](=O)[O-])cc2[N+](=O)[O-])c([N+](=O)[O-])c1,CC(C)=O,mol_4396_solute_opt,mol_4396_solvent_opt,50,34,293.1,-2.7261543178768464,"2,6-bis(picrylamino)-3,5-dinitropyridine",acetone
4397.0,NC(=O)c1nc(F)cnc1O,CC(C)=O,mol_4397_solute_opt,mol_4397_solvent_opt,50,41,293.15,-1.2443936964505795,Favipiravir,acetone
4398.0,O=C1O[C@H](CO)[C@@H](O)[C@H](O)[C@H]1O,CC(C)=O,mol_4398_solute_opt,mol_4398_solvent_opt,50,39,288.15,-2.4731076225952147,"1,5-gluconolactone",acetone
4399.0,O=C1CCCCCCCCCCC1,CC(C)=O,mol_4399_solute_opt,mol_4399_solvent_opt,50,34,278.15,0.3607982539974422,Cyclododecanone,acetone
4400.0,C=C1C[C@]23C[C@@]1(O)CC[C@H]2[C@@]12C=C[C@H](O)[C@@](C)(C(=O)O1)[C@H]2[C@@H]3C(=O)O,CC(C)=O,mol_4400_solute_opt,mol_4400_solvent_opt,50,26,278.15,0.2026420343616383,Gibberellin a3,acetone
4401.0,Nc1cccc2ccccc12,CC(C)=O,mol_4401_solute_opt,mol_4401_solvent_opt,50,37,273.15,1.2378752552427357,1-naphthylamine,acetone
4402.0,CCCCC(=O)N(Cc1ccc(-c2ccccc2-c2nn[nH]n2)cc1)[C@H](C(=O)O)C(C)C,CC(C)=O,mol_4402_solute_opt,mol_4402_solvent_opt,50,26,278.15,-0.605469865576091,Valsartan,acetone
4404.0,Nc1cc(Cl)ccc1[N+](=O)[O-],CC(C)=O,mol_4404_solute_opt,mol_4404_solvent_opt,50,42,283.15,0.2994035720634307,5-chloro-2-nitroaniline,acetone
4405.0,Cc1ccc(CO)cc1,CC(C)=O,mol_4405_solute_opt,mol_4405_solvent_opt,50,38,278.15,0.6079382868809198,p-methylbenzyl alcohol,acetone
4406.0,CC1CCC(=O)C1=O,CC(C)=O,mol_4406_solute_opt,mol_4406_solvent_opt,50,46,278.15,0.1575351271697424,"3-methyl-1,2-cyclopentanedione",acetone
4407.0,CN(CCOc1ccc(CC2SC(=O)NC2=O)cc1)c1ccccn1,CC(C)=O,mol_4407_solute_opt,mol_4407_solvent_opt,50,33,283.15,-1.61007599064024,Rosiglitazone,acetone
4408.0,CCCCCc1ccc2c(c1)C(=O)c1ccccc1C2=O,CC(C)=O,mol_4408_solute_opt,mol_4408_solvent_opt,50,22,288.15,-0.5014387384815008,2-amyl anthraquinone,acetone
4409.0,CCC[C@@H]1C[C@@H](C(=O)N[C@@H]([C@H]2O[C@H](SC)[C@H](O)[C@H]3OC(C)(C)O[C@H]32)[C@H](C)Cl)N(C)C1,CC(C)=O,mol_4409_solute_opt,mol_4409_solvent_opt,50,20,273.15,-0.799554422537041,"3,4-o-isopropylidene clindamycin",acetone
4410.0,ClCc1ccc(Cl)nc1,CC(C)=O,mol_4410_solute_opt,mol_4410_solvent_opt,50,43,278.85,-0.4941270866988952,2-chloro-5-chloromethylpyridine,acetone
4411.0,O=C[C@H](O)[C@H](O)[C@H](O)CO,CC(C)=O,mol_4411_solute_opt,mol_4411_solvent_opt,50,41,283.15,-1.4891702310740862,D-ribose,acetone
4412.0,N[C@@H](CS)C(=O)O,CC(C)=O,mol_4412_solute_opt,mol_4412_solvent_opt,50,43,283.15,-1.838204227313836,L-cysteine,acetone
4413.0,c1cnc2[nH]ccc2c1,CC(C)=O,mol_4413_solute_opt,mol_4413_solvent_opt,50,43,278.15,0.6930878093729221,7-azaindole,acetone
4414.0,CC(C)(c1ccc(O)cc1)c1ccc(O)cc1,CC(C)=O,mol_4414_solute_opt,mol_4414_solvent_opt,50,34,273.15,0.7635745469751304,Bisphenol A,acetone