pair_id,SMILES_Solute,SMILES_Solvent,Solute_name,Solvent_name,Total_conformers,Filtered_conformers,Temperature_K,LogS,Compound_Name,Solvent
1072.0,COc1ccc2cccc(CCNC(C)=O)c2c1,CO,mol_1072_solute_opt,mol_1072_solvent_opt,50,22,278.15,-0.3080886718998547,Agomelatine,methanol
1073.0,Clc1cccnc1Cl,CO,mol_1073_solute_opt,mol_1073_solvent_opt,50,36,278.15,-0.3344425595755345,"2,3-dichloropyridine",methanol
1074.0,O=C(O)c1cccc(C(=O)O)c1,CO,mol_1074_solute_opt,mol_1074_solvent_opt,50,33,283.15,-1.1712477716737548,Isophthalic acid,methanol
1075.0,Nc1nc(N)c2nc(-c3ccccc3)c(N)nc2n1,CO,mol_1075_solute_opt,mol_1075_solvent_opt,50,24,283.15,-3.1392700611650497,Triamterene,methanol
1076.0,CC(=O)C1C(=O)C=C(C)OC1=O,CO,mol_1076_solute_opt,mol_1076_solvent_opt,50,33,288.05,-0.832952342305319,Dehydroacetic acid,methanol
1077.0,O=C(O)/C=C/c1ccc(Cl)cc1,CO,mol_1077_solute_opt,mol_1077_solvent_opt,50,33,283.15,-1.5515610713088392,trans-4-chlorocinnamic acid,methanol
1078.0,CCOc1ccc2ccccc2c1C(=O)O,CO,mol_1078_solute_opt,mol_1078_solvent_opt,50,22,278.15,-0.1033811509742898,2-ethoxy-1-naphthoic acid,methanol
1079.0,OCC1(O)OC[C@@H](O)[C@H](O)[C@@H]1O,CO,mol_1079_solute_opt,mol_1079_solvent_opt,50,27,283.15,-0.9836267619323078,D-tagatose,methanol
1080.0,N#Cc1ccc(C(c2ccc(C#N)cc2)n2cncn2)cc1,CO,mol_1080_solute_opt,mol_1080_solvent_opt,50,25,283.15,-1.568535767338896,Letrozole,methanol
1081.0,NC(N)=O,CO,mol_1081_solute_opt,mol_1081_solvent_opt,50,37,293.15,0.3576607181391767,Urea,methanol
1082.0,Cc1ncc([N+](=O)[O-])n1CCO,CO,mol_1082_solute_opt,mol_1082_solvent_opt,50,30,293.15,-0.7980914413595778,Metronidazole,methanol
1083.0,O=c1c(O)c(-c2cc(O)c(O)c(O)c2)oc2cc(O)cc(O)c12,CO,mol_1083_solute_opt,mol_1083_solvent_opt,50,23,298.15,-0.9115945570542384,Myricetin,methanol
1084.0,O=c1c(O)c(-c2ccc(O)c(O)c2)oc2cc(O)cc(O)c12,CO,mol_1084_solute_opt,mol_1084_solvent_opt,50,21,298.15,-1.451730919963864,Quercetin,methanol
1085.0,O=c1c(O)c(-c2ccc(O)cc2)oc2cc(O)cc(O)c12,CO,mol_1085_solute_opt,mol_1085_solvent_opt,50,26,298.15,-1.0977571165577935,Kampferol,methanol
1086.0,OC[C@H]1O[C@@H](Oc2cc(O)cc(/C=C/c3ccc(O)cc3)c2)[C@H](O)[C@@H](O)[C@@H]1O,CO,mol_1086_solute_opt,mol_1086_solvent_opt,50,19,298.15,-0.6720180729475843,trans-piceid,methanol
1087.0,Cc1cccc(N(C)C(=S)Oc2ccc3ccccc3c2)c1,CO,mol_1087_solute_opt,mol_1087_solvent_opt,50,16,283.15,-1.9980281397618875,Tolnaftate,methanol
1088.0,O=C(O)c1cccc([N+](=O)[O-])c1,CO,mol_1088_solute_opt,mol_1088_solvent_opt,50,35,298.2,0.8170423930108596,3-nitrobenzoic acid,methanol
1089.0,O=C(O)c1cn(C2CC2)c2cc(N3CCNCC3)c(F)cc2c1=O,CO,mol_1089_solute_opt,mol_1089_solvent_opt,50,22,293.15,-3.696803008089353,Ciprofloxacin,methanol
1090.0,Cc1cc(C)nc(NS(=O)(=O)c2ccc(N)cc2)n1,CO,mol_1090_solute_opt,mol_1090_solvent_opt,50,30,293.15,-3.6304961876454223,Sulfamethazine,methanol
1091.0,OC[C@@H](O)[C@@H](O)[C@H](O)[C@@H](O)CO,CO,mol_1091_solute_opt,mol_1091_solvent_opt,50,30,278.15,-1.2871643648750406,D-sorbitol,methanol
1092.0,O=C(O)c1cc(O)c(O)c(O)c1,CO,mol_1092_solute_opt,mol_1092_solvent_opt,50,30,293.15,0.2264398167307075,Gallic acid,methanol
1093.0,COc1ccccc1OCC(O)COC(N)=O,CO,mol_1093_solute_opt,mol_1093_solvent_opt,50,22,298.15,-0.9796709578662632,Methocarbamol,methanol
1094.0,N#CNC(=N)N,CO,mol_1094_solute_opt,mol_1094_solvent_opt,50,36,278.15,-0.4444856848215229,2-cyanoguanidine,methanol
1095.0,Cc1ccc(C(=O)O)cc1,CO,mol_1095_solute_opt,mol_1095_solvent_opt,50,32,283.15,-0.2926248943578666,p-methylbenzoic acid,methanol
1096.0,COc1c(NS(=O)(=O)c2ccc(C)cc2)cc(-c2ccc3ncnc(N4CCOCC4)c3c2)cc1C(N)=O,CO,mol_1096_solute_opt,mol_1096_solvent_opt,50,12,288.15,-1.6845431518366127,2-methoxy-3-(4-methylphenylsulfonamido)-5-(4-morpholinoquinazolin-6-yl)benzamide,methanol
1097.0,COc1c(NS(=O)(=O)c2ccc(F)cc2)cc(-c2ccc3nccc(N4CCOCC4)c3c2)cc1C(N)=O,CO,mol_1097_solute_opt,mol_1097_solvent_opt,50,17,288.15,-2.1910773255378624,3-(4-fluorophenylsulfonamido)-2-methoxy-5-(4-morpholinoquinolin-6-yl)benzamide,methanol
1098.0,COc1c(NS(=O)(=O)c2ccc(F)cc2)cc(-c2ccc3ncnc(N4CCOCC4)c3c2)cc1C(N)=O,CO,mol_1098_solute_opt,mol_1098_solvent_opt,50,24,288.15,-2.22774816902086,3-(4-fluorophenylsulfonamido)-2-methoxy-5-(4-morpholinoquinazolin-6-yl)benzamide,methanol
1099.0,O=P(NC1CCCCC1)(Oc1ccccc1)Oc1ccccc1,CO,mol_1099_solute_opt,mol_1099_solvent_opt,50,12,293.15,0.0245308610755217,Cyclohexyl-phosphoramidic acid diphenyl ester,methanol
1100.0,O=C(/C=C/c1ccc(O)c(O)c1)O[C@H](Cc1ccc(O)c(O)c1)C(=O)O,CO,mol_1100_solute_opt,mol_1100_solvent_opt,50,19,293.15,0.9823697504069552,Rosmarinic acid,methanol
1101.0,CCOC(=O)Cc1c(C(=O)OCC)sc(N(CC(=O)OCC)CC(=O)OCC)c1C#N,CO,mol_1101_solute_opt,mol_1101_solvent_opt,50,16,283.15,-1.5230885997258583,Tetraethyl ranelate,methanol
1102.0,COc1cc(C(=O)O)ccc1O,CO,mol_1102_solute_opt,mol_1102_solvent_opt,50,33,293.15,0.6017065448441662,Vanillic acid,methanol
1103.0,COc1cc(-c2cc(-c3ccc(Br)cc3)[nH]c(=O)c2C#N)ccc1O,CO,mol_1103_solute_opt,mol_1103_solvent_opt,50,23,298.15,-1.891718343919788,"6-(4-bromophenyl)-4-(4-hydroxy-3-methoxyphenyl)-2-oxo-1,2-dihydropyridine-3-carbonitrile",methanol
1104.0,COc1cc(-c2cc(-c3ccc(Cl)cc3)[nH]c(=O)c2C#N)ccc1O,CO,mol_1104_solute_opt,mol_1104_solvent_opt,50,25,298.15,-1.8489142896474096,"6-(4-chlorophenyl)-4-(4-hydroxy-3-methoxyphenyl)-2-oxo-1,2-dihydropyridine-3-carbonitrile",methanol
1105.0,COc1cc(-c2cc(-c3ccc(F)cc3)[nH]c(=O)c2C#N)ccc1O,CO,mol_1105_solute_opt,mol_1105_solvent_opt,50,24,298.15,-1.81878750692738,"6-(4-fluorophenyl)-4-(4-hydroxy-3-methoxyphenyl)-2-oxo-1,2-dihydropyridine-3-carbonitrile",methanol
1106.0,COc1cc(-c2cc(-c3ccc(O)cc3)[nH]c(=O)c2C#N)ccc1O,CO,mol_1106_solute_opt,mol_1106_solvent_opt,50,21,298.15,-1.85102923303588,"4-(4-hydroxy-3-methoxyphenyl)-6-(4-hydroxyphenyl)-2-oxo-1,2-dihydropyridine-3 -carbonitrile",methanol
1107.0,COc1ccc(-c2cc(-c3ccc(O)c(OC)c3)c(C#N)c(=O)[nH]2)cc1,CO,mol_1107_solute_opt,mol_1107_solvent_opt,50,16,298.15,-1.93550770545052,"4-(4-hydroxy-3-methoxyphenyl)-6-(4-methoxyphenyl)-2-oxo-1,2-dihydropyridine-3-carbonitrile",methanol
1108.0,CCOc1ccc(C2NC(=O)NC=C2C(=O)c2cc(OC)c(OC)c(OC)c2)cc1,CO,mol_1108_solute_opt,mol_1108_solvent_opt,50,19,298.15,-2.2086047741502366,"4-(4-ethoxyphenyl)-5-(3,4,5 trimethoxybenzoyl)-3,4-dihydropyrimidine-2(1H)-one (DHP-5)",methanol
1109.0,O=C(O)/C=C/c1ccc(O)c(O)c1,CO,mol_1109_solute_opt,mol_1109_solvent_opt,50,27,293.15,-0.3944859678091842,Caffeic acid,methanol
1110.0,Cc1cnc(N)s1,CO,mol_1110_solute_opt,mol_1110_solvent_opt,50,37,278.15,0.2007274641405162,2-amino-5-methylthiazole,methanol
1111.0,C1OCOCO1,CO,mol_1111_solute_opt,mol_1111_solvent_opt,50,40,288.15,0.6983433310310533,"1,3,5-trioxane",methanol
1112.0,OCCCCCCO,CO,mol_1112_solute_opt,mol_1112_solvent_opt,50,33,283.15,1.1576523595686072,"1,6-hexanediol",methanol
1113.0,COc1cc(/C=C/C(=O)O)ccc1O,CO,mol_1113_solute_opt,mol_1113_solvent_opt,50,26,298.2,-0.2030128684198967,Ferulic acid,methanol
1114.0,O=Cc1ccc(O)cc1,CO,mol_1114_solute_opt,mol_1114_solvent_opt,50,36,278.15,-0.0510651556843872,4-hydroxybenzaldehyde,methanol
1115.0,O=C(O)CNC(=O)c1ccccc1,CO,mol_1115_solute_opt,mol_1115_solvent_opt,50,25,298.15,-0.3504067154648046,Hippuric acid,methanol
1116.0,O=C(O)c1ccccc1Nc1cccc(C(F)(F)F)c1,CO,mol_1116_solute_opt,mol_1116_solvent_opt,50,26,298.2,0.0517981429713133,Flufenamic acid,methanol
1117.0,Cc1cc(N)n(-c2ccccc2)n1,CO,mol_1117_solute_opt,mol_1117_solvent_opt,50,27,283.15,0.3666846245026362,5-amino-3-methyl-1-phenylpyrazole,methanol
1118.0,Cc1c(OCC(F)(F)F)ccnc1CS(=O)c1nc2ccccc2[nH]1,CO,mol_1118_solute_opt,mol_1118_solvent_opt,50,19,278.15,-0.2477256173944596,Lansoprazole,methanol
1119.0,CC(=O)Nc1cccc(N)c1,CO,mol_1119_solute_opt,mol_1119_solvent_opt,50,30,278.15,0.1122061196620353,"N-acetyl-1,3-phenylenediamine",methanol
1120.0,Cc1occc(=O)c1O,CO,mol_1120_solute_opt,mol_1120_solvent_opt,50,36,288.15,-0.4703725326519399,Maltol,methanol
1121.0,Cc1c(N)c(=O)n(-c2ccccc2)n1C,CO,mol_1121_solute_opt,mol_1121_solvent_opt,50,25,299.05,0.8646296191988339,4-aminoantipyrine,methanol
1122.0,O=C(/C=C/C=C/c1ccc2c(c1)OCO2)N1CCCCC1,CO,mol_1122_solute_opt,mol_1122_solvent_opt,50,23,298.2,-0.8860576598642859,Piperine,methanol
1123.0,CC(C)(C)c1cc(CCC(=O)NCCCCCCNC(=O)CCc2cc(C(C)(C)C)c(O)c(C(C)(C)C)c2)cc(C(C)(C)C)c1O,CO,mol_1123_solute_opt,mol_1123_solvent_opt,50,9,283.15,-1.3071061842032643,"1,6-bis[3-(3,5-di-tert-butyl-4-hydroxyphenyl)propionamido]hexane",methanol
1124.0,O=c1cc(-c2ccc(O)c(O)c2)oc2cc(O)cc(O)c12,CO,mol_1124_solute_opt,mol_1124_solvent_opt,50,25,298.2,-1.93786103475234,Luteolin,methanol
1125.0,OC[C@H]1O[C@@H](Oc2c(O)cc(O)cc2/C=C/c2ccc(O)cc2)[C@H](O)[C@@H](O)[C@@H]1O,CO,mol_1125_solute_opt,mol_1125_solvent_opt,50,15,278.15,-0.6964717488086811,"2,3,5,4′-tetrahydroxystilbene-2-o-β-d-glucoside",methanol
1126.0,O=c1[nH]c2ccccc2n1CCCN1CCC(n2c(=O)[nH]c3cc(Cl)ccc32)CC1,CO,mol_1126_solute_opt,mol_1126_solvent_opt,50,19,278.15,-3.686521984782274,Domperidone,methanol
1127.0,Cc1cnc(C(=O)O)c[n+]1[O-],CO,mol_1127_solute_opt,mol_1127_solvent_opt,50,37,283.15,-1.2772290295515465,Acipimox,methanol
1128.0,N[C@@H](Cc1ccccc1)C(=O)O,CO,mol_1128_solute_opt,mol_1128_solvent_opt,50,24,288.15,-2.099008468528957,L-phenylalanine,methanol
1129.0,Cc1cc(=O)n(-c2ccccc2)n1C,CO,mol_1129_solute_opt,mol_1129_solvent_opt,50,21,288.15,0.7364829366441601,Antipyrine,methanol
1130.0,O=C(O)c1cccc2ccccc12,CO,mol_1130_solute_opt,mol_1130_solvent_opt,50,31,293.15,-0.285276752830194,1-naphthoic acid,methanol
1131.0,CC1=CC(=O)C(C(C)C)=CC1=O,CO,mol_1131_solute_opt,mol_1131_solvent_opt,50,33,298.2,-0.6057982536749627,Thymoquinone,methanol
1132.0,NC(=O)N/N=C/c1ccc([N+](=O)[O-])o1,CO,mol_1132_solute_opt,mol_1132_solvent_opt,50,31,278.15,-2.4283110884023302,5-nitrofurazone,methanol
1133.0,COc1ccc(-c2nn(-c3ccccc3)cc2/C=C/C(=O)c2nc3ccccc3[nH]2)cc1,CO,mol_1133_solute_opt,mol_1133_solvent_opt,50,14,298.15,-2.447487213401378,(E)‑1‑(1H‑benzo[d]imidazole‑2‑yl)‑3‑(3‑(4‑methxyphenyl)‑1‑phenyl‑1H‑pyrazol‑4‑yl) prop‑2‑en‑1-one,methanol
1134.0,COc1ccc(-c2nn(-c3ccccc3)cc2/C=C/C(=O)c2nc3ccccc3[nH]2)cc1OC,CO,mol_1134_solute_opt,mol_1134_solvent_opt,50,17,298.15,-3.127227984571569,"(E)‑1‑(1H‑benzo[d]imidazole‑2‑yl)‑3‑(3‑(3,4‑dimethoxyphenyl)‑1‑phenyl‑1H‑pyrazol‑4‑yl)prop‑2‑en‑1-one",methanol
1135.0,COc1cccc(-c2nn(-c3ccccc3)cc2/C=C/C(=O)c2nc3ccccc3[nH]2)c1,CO,mol_1135_solute_opt,mol_1135_solvent_opt,50,16,298.15,-3.1771337105189126,(E)‑1‑(1H‑benzo[d]imidazole‑2‑yl)‑3‑(3‑methxyphenyl‑1H‑pyrazol‑4‑yl)prop‑2‑en-1-one,methanol
1136.0,O=C(/C=C/c1cn(-c2ccccc2)nc1-c1ccc(Cl)cc1)c1nc2ccccc2[nH]1,CO,mol_1136_solute_opt,mol_1136_solvent_opt,50,11,298.15,-3.00157110464215,(E)‑1‑(1H‑benzo[d]imidazole‑2‑yl)‑3‑(3‑(4‑chlorophenyl)‑phenyl‑1H‑pyrazol‑4‑yl) prop‑2‑en‑1-one,methanol
1137.0,O=C(/C=C/c1cn(-c2ccccc2)nc1-c1ccc(F)cc1)c1nc2ccccc2[nH]1,CO,mol_1137_solute_opt,mol_1137_solvent_opt,50,14,298.15,-1.861605881778056,(E)‑1‑(1H‑benzo[d]imidazole‑2‑yl)‑3‑(3‑(4‑fluorophenyl)‑1H‑pyrazol‑4‑yl)pop‑2‑en‑1-one,methanol
1138.0,O=C(/C=C/c1cn(-c2ccccc2)nc1-c1cccc([N+](=O)[O-])c1)c1nc2ccccc2[nH]1,CO,mol_1138_solute_opt,mol_1138_solvent_opt,50,16,298.15,-3.003715859971153,(E)‑1‑(1H‑benzo[d]imidazole‑2‑yl)‑3‑(3‑(3‑nitrophenyl)‑1‑phenyl‑1H‑pyrazol‑4‑yl) prop‑2‑en‑1-one,methanol
1139.0,O=C(/C=C/c1cn(-c2ccccc2)nc1-c1ccccc1)c1nc2ccccc2[nH]1,CO,mol_1139_solute_opt,mol_1139_solvent_opt,50,17,298.15,-2.8665809456240443,"(E)‑1‑(1H‑benzo[d]imidazole‑2‑yl)‑3‑(1, 3‑diphenyl‑1H‑pyrazol‑4‑yl) prop‑2‑en‑1-one",methanol
1140.0,O=C(/C=C/c1cn(-c2ccccc2)nc1-c1ccccc1Cl)c1nc2ccccc2[nH]1,CO,mol_1140_solute_opt,mol_1140_solvent_opt,50,20,298.15,-2.65390707846206,(E)‑1‑(1H‑benzo[d]imidazole‑2-yl)‑3‑(3‑(2‑chlorophenyl)‑1‑phenyl‑1H‑pyrazol‑4‑yl) prop‑2‑en‑1-one,methanol
1141.0,Nc1ccc(S(=O)(=O)c2ccc(N)cc2)cc1,CO,mol_1141_solute_opt,mol_1141_solvent_opt,50,13,283.15,-0.7744798041054991,Dapsone,methanol
1142.0,NC(=O)c1ccccc1,CO,mol_1142_solute_opt,mol_1142_solvent_opt,50,29,283.15,0.2016696854317497,Benzamide,methanol
1143.0,CC1(C)S[C@@H]2[C@H](NC(=O)[C@H](NC(=O)N3CCNC3=O)c3ccccc3)C(=O)N2[C@H]1C(=O)O,CO,mol_1143_solute_opt,mol_1143_solvent_opt,50,18,278.15,-2.150981069625194,Azlocillin,methanol
1144.0,O=C(NC(Cc1cc(=O)[nH]c2ccccc12)C(=O)O)c1ccc(Cl)cc1,CO,mol_1144_solute_opt,mol_1144_solvent_opt,50,20,288.15,-2.7264210866702534,Rebamipide,methanol
1145.0,NC(=O)Cc1ccccc1,CO,mol_1145_solute_opt,mol_1145_solvent_opt,50,30,273.75,-0.3941356282326868,2-phenylacetamide,methanol
1146.0,COC(=O)c1cc(O)c(O)c(O)c1,CO,mol_1146_solute_opt,mol_1146_solvent_opt,50,30,293.15,0.3387974005453864,Methyl gallate,methanol
1147.0,C/C(=C/C(C)=N/c1c(C(C)C)cccc1C(C)C)Nc1c(C(C)C)cccc1C(C)C,CO,mol_1147_solute_opt,mol_1147_solvent_opt,50,8,283.15,-2.6023853827095453,"N-(4-((2,6-Diisopropylphenyl)imino)pent-2-en-2-yl)-2,6-diisopropylaniline",methanol
1148.0,Cc1ccc(S(N)(=O)=O)cc1,CO,mol_1148_solute_opt,mol_1148_solvent_opt,50,25,273.15,-0.0843433334810708,p-Toluenesulfonamide,methanol
1149.0,COc1ccccc1OCCNCC(O)COc1cccc2[nH]c3ccccc3c12,CO,mol_1149_solute_opt,mol_1149_solvent_opt,50,15,288.15,-1.7198471204481371,Carvedilol,methanol
1150.0,CC(=O)OC(c1ccccc1)C(Cl)(Cl)Cl,CO,mol_1150_solute_opt,mol_1150_solvent_opt,50,23,288.15,-0.7833515273636596,Alpha-(trichloromethyl) benzyl acetate,methanol
1151.0,CCc1cccc(CC)c1/N=C(C)/C=C(/C)Nc1c(CC)cccc1CC,CO,mol_1151_solute_opt,mol_1151_solvent_opt,50,11,268.15,-2.117484795957167,"N-(4-((2,6-diethylphenyl)imino)pent-2-en-2-yl)-2,6-diethylaniline",methanol
1152.0,O=C1Cc2cc(F)ccc2N1,CO,mol_1152_solute_opt,mol_1152_solvent_opt,50,36,278.15,-0.1955301602575032,5-fluoro-2-oxindole,methanol
1153.0,O=C1C2C3C=CC(C3)C2C(=O)N1O,CO,mol_1153_solute_opt,mol_1153_solvent_opt,50,31,278.15,0.2810572707913518,"N-hydroxy-5-norbornene-2,3-dicarboximide",methanol
1154.0,COc1cc2ncnc(Nc3ccc(F)c(Cl)c3)c2cc1OCCCN1CCOCC1,CO,mol_1154_solute_opt,mol_1154_solvent_opt,50,17,298.2,-2.121478559272856,Gefitinib,methanol
1155.0,Cc1c[nH]c(=O)[nH]c1=O,CO,mol_1155_solute_opt,mol_1155_solvent_opt,50,38,283.15,-1.9293878461695044,Thymine,methanol
1156.0,CC1(C)[C@H](C(=O)O)[C@@H]1/C=C(\Cl)C(F)(F)F,CO,mol_1156_solute_opt,mol_1156_solvent_opt,50,30,283.15,0.1872661284142897,Cyhalothric acid,methanol
1157.0,c1ccc(-c2cc3ccccc3[nH]2)cc1,CO,mol_1157_solute_opt,mol_1157_solvent_opt,50,25,296.95,-0.8506168162341613,2-phenyl-1H-indole,methanol
1158.0,C[C@]12CC[C@@H]3c4ccc(O)cc4CC[C@H]3[C@@H]1CC[C@@H]2O,CO,mol_1158_solute_opt,mol_1158_solvent_opt,50,20,273.15,1.018084100188653,Estradiol,methanol
1159.0,Nc1ccc(S(N)(=O)=O)cc1,CO,mol_1159_solute_opt,mol_1159_solvent_opt,50,30,278.15,-0.567624352441458,Sulfanilamide,methanol
1160.0,C[C@@H](O[C@H]1OCCN(Cc2n[nH]c(=O)[nH]2)[C@H]1c1ccc(F)cc1)c1cc(C(F)(F)F)cc(C(F)(F)F)c1,CO,mol_1160_solute_opt,mol_1160_solvent_opt,50,16,284.45,-1.1050182859959523,Aprepitant,methanol
1161.0,OC[C@H]1O[C@@H](c2ccc(Cl)c(Cc3ccc(O[C@H]4CCOC4)cc3)c2)[C@H](O)[C@@H](O)[C@@H]1O,CO,mol_1161_solute_opt,mol_1161_solvent_opt,50,17,278.15,-3.351828489986897,Empagliflozin,methanol
1162.0,Nc1nc(N)nc(-c2ccncc2)n1,CO,mol_1162_solute_opt,mol_1162_solvent_opt,50,27,288.15,-1.4654433401993767,"2,4-diamino-6-(4-pyridyl)-1,3,5-triazine",methanol
1163.0,CC(C)(OOC(C)(C)c1ccccc1)c1ccccc1,CO,mol_1163_solute_opt,mol_1163_solvent_opt,50,20,274.15,-0.7700858101964025,Dicumyl peroxide (dcp),methanol
1164.0,CC(C)C(N)=O,CO,mol_1164_solute_opt,mol_1164_solvent_opt,50,32,273.15,0.3673149660608297,Isobutyramide,methanol
1165.0,Cc1ccc(S(=O)(=O)NC(=O)NN2CC3CCCC3C2)cc1,CO,mol_1165_solute_opt,mol_1165_solvent_opt,50,21,278.15,-1.513176143696069,Gliclazide,methanol
1166.0,Cn1nc([N+](=O)[O-])c([N+](=O)[O-])c1[N+](=O)[O-],CO,mol_1166_solute_opt,mol_1166_solvent_opt,50,27,283.15,-2.100410366738613,"1-methyl-3,4,5-trinitropyrazole",methanol
1167.0,O=C(c1ccc(F)cc1)c1ccc(F)cc1,CO,mol_1167_solute_opt,mol_1167_solvent_opt,50,23,293.15,-0.8124449450840605,"4,4′-difluorobenzophenone",methanol
1168.0,CC1=CC(=O)c2ccccc2C1=O,CO,mol_1168_solute_opt,mol_1168_solvent_opt,50,26,278.15,-1.1443367834100926,Vitamin K3,methanol
1169.0,CCCOC(=O)c1cc(O)c(O)c(O)c1,CO,mol_1169_solute_opt,mol_1169_solvent_opt,50,22,293.15,0.85832623303141,Propyl gallate,methanol
1170.0,C[C@H]1O[C@@H](n2cc(F)c(=O)[nH]c2=O)[C@H](O)[C@@H]1O,CO,mol_1170_solute_opt,mol_1170_solvent_opt,50,30,278.15,-1.1272303143836917,Doxifluridine,methanol
1171.0,COc1ccc2[nH]cc(CCNC(C)=O)c2c1,CO,mol_1171_solute_opt,mol_1171_solvent_opt,50,20,278.15,-0.5299055664840808,Melatonin,methanol
1172.0,O=c1cc[nH]c(=O)[nH]1,CO,mol_1172_solute_opt,mol_1172_solvent_opt,50,35,283.15,-2.4205192086058527,Uracil,methanol
1173.0,O=C1CC[C@@H](C(=O)O)N1,CO,mol_1173_solute_opt,mol_1173_solvent_opt,50,33,295.75,0.3287035197661893,L-pyroglutamic acid,methanol
1174.0,O=C1c2ccccc2C(=O)N1O,CO,mol_1174_solute_opt,mol_1174_solvent_opt,50,35,278.15,-1.0496355610169443,N-hydroxyphthalimide,methanol
1175.0,CC(=O)[C@H]1CC[C@H]2[C@@H]3CCC4=CC(=O)CC[C@]4(C)[C@H]3CC[C@]12C,CO,mol_1175_solute_opt,mol_1175_solvent_opt,50,19,278.15,-1.2340638958055483,Progesterone,methanol
1176.0,CC(C)C(=O)Nc1ccc([N+](=O)[O-])c(C(F)(F)F)c1,CO,mol_1176_solute_opt,mol_1176_solvent_opt,50,21,278.15,0.0205444640449594,Flutamide,methanol
1177.0,Nc1ccc(S(=O)(=O)Nc2ncccn2)cc1,CO,mol_1177_solute_opt,mol_1177_solvent_opt,50,33,278.15,-2.748520258707083,Sulfadiazine,methanol
1178.0,Oc1ccccc1/C=N/CC/N=C/c1ccccc1O,CO,mol_1178_solute_opt,mol_1178_solvent_opt,50,26,278.15,-2.12255788081767,Salen,methanol
1179.0,O=c1cc(-c2ccccc2)oc2cc(O)cc(O)c12,CO,mol_1179_solute_opt,mol_1179_solvent_opt,50,29,293.2,-2.2531975753631857,Chrysin,methanol
1180.0,O=C(O)c1ccco1,CO,mol_1180_solute_opt,mol_1180_solvent_opt,50,36,283.15,1.122987479186447,2-furancarboxylic acid,methanol
1181.0,CS(=O)(=O)Nc1ccc([N+](=O)[O-])cc1Oc1ccccc1,CO,mol_1181_solute_opt,mol_1181_solvent_opt,50,30,278.15,-1.8199514281665083,Nimesulide,methanol
1182.0,O=c1ccn([C@@H]2O[C@H](CO)[C@@H](O)[C@H]2O)c(=O)[nH]1,CO,mol_1182_solute_opt,mol_1182_solvent_opt,50,23,278.15,-1.3349017544830046,Uridine,methanol
1183.0,COc1ccc(C(=O)O)cc1,CO,mol_1183_solute_opt,mol_1183_solvent_opt,50,29,273.15,-0.938233454420076,4-methoxybenzoic acid,methanol
1184.0,N#CCNC(=O)c1cnccc1C(F)(F)F,CO,mol_1184_solute_opt,mol_1184_solvent_opt,50,28,283.15,-0.6236163596802858,Flonicamid,methanol
1185.0,CC1Cc2ccccc2N1NC(=O)c1ccc(Cl)c(S(N)(=O)=O)c1,CO,mol_1185_solute_opt,mol_1185_solvent_opt,50,19,278.15,-0.8781131608061741,Indapamide,methanol
1186.0,Nc1nc(NC2CC2)c2ncn([C@H]3C=C[C@@H](CO)C3)c2n1,CO,mol_1186_solute_opt,mol_1186_solvent_opt,50,18,278.15,-0.8024249339349264,Abacavir,methanol
1187.0,NS(=O)(=O)c1ccccc1C(=O)[O-],CO,mol_1187_solute_opt,mol_1187_solvent_opt,50,39,272.15,-1.102225298808156,Methyl 2-sulfamoylbenzoate,methanol
1188.0,O=C(O)C(O)c1ccccc1,CO,mol_1188_solute_opt,mol_1188_solvent_opt,50,33,283.15,0.8864499081087053,"(R,S)-mandelic acid",methanol
1189.0,O=[N+]([O-])N=C1NCCN1Cc1ccc(Cl)nc1,CO,mol_1189_solute_opt,mol_1189_solvent_opt,50,30,283.15,-1.7636580293900612,Imidacloprid,methanol
1190.0,COc1cc(/C=C/C(=O)CC(=O)/C=C/c2ccc(O)c(OC)c2)ccc1O,CO,mol_1190_solute_opt,mol_1190_solvent_opt,50,16,278.15,-2.137285481864742,Curcumin,methanol
1191.0,COc1ccc(C=O)cc1O,CO,mol_1191_solute_opt,mol_1191_solvent_opt,50,32,278.15,-0.3998564501053678,Isovanillin,methanol
1192.0,CC1(C)O[C@@H]2[C@@H](CO[C@@]3(COS(N)(=O)=O)OC(C)(C)O[C@@H]23)O1,CO,mol_1192_solute_opt,mol_1192_solvent_opt,50,34,278.15,0.021672736960863,Topiramate,methanol
1193.0,O=[N+]([O-])c1cc[nH]n1,CO,mol_1193_solute_opt,mol_1193_solvent_opt,50,41,283.15,-0.6839723429532903,3-nitro-1H-pyrazole,methanol
1194.0,CC(C)[C@H](C)[C@@H](O)[C@H](O)[C@@H](C)[C@H]1CC[C@H]2[C@@H]3COC(=O)[C@H]4C[C@H](O)[C@H](O)C[C@]4(C)[C@H]3CC[C@]12C,CO,mol_1194_solute_opt,mol_1194_solvent_opt,50,18,278.15,-0.0794145475361631,Brassinolide,methanol
1195.0,O=C(O)c1cc(=O)[nH]c(=O)[nH]1,CO,mol_1195_solute_opt,mol_1195_solvent_opt,50,33,278.15,-2.95240719021136,Orotic acid,methanol
1196.0,Cn1cc[nH]c1=S,CO,mol_1196_solute_opt,mol_1196_solvent_opt,50,32,278.15,0.2052139533548805,Methimazole,methanol
1197.0,CC(=O)Nc1ccc(CC(=O)O)cc1,CO,mol_1197_solute_opt,mol_1197_solvent_opt,50,24,278.15,-0.6975756868680121,Actarit,methanol