pair_id,SMILES_Solute,SMILES_Solvent,Solute_name,Solvent_name,Total_conformers,Filtered_conformers,Temperature_K,LogS,Compound_Name,Solvent
6385.0,CC1=NN(c2ccccc2)C(=O)C1,CC(C)CO,mol_6385_solute_opt,mol_6385_solvent_opt,50,42,283.15,-0.771035263365059,Edaravone,isobutanol
6386.0,Nc1cccc(Cl)c1C(=O)O,CC(C)CO,mol_6386_solute_opt,mol_6386_solvent_opt,50,40,278.15,-0.9291357486138648,2-amino-6-chlorobenzoic acid,isobutanol
6387.0,OCc1ccccc1O[C@@H]1OC(CO)[C@@H](O)[C@@H](O)C1O,CC(C)CO,mol_6387_solute_opt,mol_6387_solvent_opt,50,41,283.15,-2.9498018294599384,D(−)-salicin,isobutanol
6388.0,O=Cc1cc(Br)c(O)c(Br)c1,CC(C)CO,mol_6388_solute_opt,mol_6388_solvent_opt,50,44,278.15,-1.3922716112540294,"3,5-dibromo-4-hydroxybenzaldehyde",isobutanol
6389.0,COc1cc2nc(Cl)nc(N)c2cc1OC,CC(C)CO,mol_6389_solute_opt,mol_6389_solvent_opt,50,36,273.15,-2.591428277696556,"2-chloro-4-amino-6,7-dimethoxyquinazoline",isobutanol
6390.0,O=C(O)Cc1ccccc1[N+](=O)[O-],CC(C)CO,mol_6390_solute_opt,mol_6390_solvent_opt,50,43,283.15,-1.0211515770581474,2-nitrophenylacetic acid,isobutanol
6391.0,C=CC(=O)NC(C)(C)CS(=O)(=O)O,CC(C)CO,mol_6391_solute_opt,mol_6391_solvent_opt,50,46,283.15,-1.5999951829747736,2-acrylamide-2-methylpropanesulfonic acid,isobutanol
6392.0,CCCOC(=O)c1ccc(O)cc1,CC(C)CO,mol_6392_solute_opt,mol_6392_solvent_opt,50,42,283.15,0.0875388645845742,Propylparaben,isobutanol
6393.0,Nc1ccc(Cc2ccc(N)c(Cl)c2)cc1Cl,CC(C)CO,mol_6393_solute_opt,mol_6393_solvent_opt,50,41,283.15,-0.8224240222116622,"4,4′-methylene-bis-(2-chloroaniline)",isobutanol
6394.0,c1ccc2[nH]c(-c3cscn3)nc2c1,CC(C)CO,mol_6394_solute_opt,mol_6394_solvent_opt,50,40,283.15,-2.0045442188878644,Thiabendazole,isobutanol
6395.0,O=Cc1cc(C=O)cc(C=O)c1,CC(C)CO,mol_6395_solute_opt,mol_6395_solvent_opt,50,46,283.15,-2.6210467768078094,"1,3,5-triformylbenzene",isobutanol
6396.0,O=C(O)[C@@H]1C[C@@H](O)CN1,CC(C)CO,mol_6396_solute_opt,mol_6396_solvent_opt,50,40,283.15,-3.122706954465192,L-hydroxyproline,isobutanol
6397.0,OCC(O)COc1ccc(Cl)cc1,CC(C)CO,mol_6397_solute_opt,mol_6397_solvent_opt,50,40,288.15,-0.4530941373348449,Chlorphenesin,isobutanol
6398.0,CC(=O)NCC(=O)O,CC(C)CO,mol_6398_solute_opt,mol_6398_solvent_opt,50,43,283.15,-1.768341400772721,N-acetylglycine,isobutanol
6399.0,Cn1c(=O)c2c(ncn2CC2OCCO2)n(C)c1=O,CC(C)CO,mol_6399_solute_opt,mol_6399_solvent_opt,50,40,283.17,-2.144538126527028,Doxofylline,isobutanol
6400.0,CC(=O)N1CCC[C@H]1C(=O)O,CC(C)CO,mol_6400_solute_opt,mol_6400_solvent_opt,50,38,283.15,-0.290402312342734,N-acetyl-L-proline,isobutanol
6401.0,CC(=O)Nc1ccccc1[N+](=O)[O-],CC(C)CO,mol_6401_solute_opt,mol_6401_solvent_opt,50,40,278.15,-1.0031689836393618,o-nitroacetanilide,isobutanol
6402.0,COc1cc2c(cc1OC)C(=O)CC2,CC(C)CO,mol_6402_solute_opt,mol_6402_solvent_opt,50,37,283.15,-0.8680610713639242,"5,6-dimethoxy-1-indanone",isobutanol
6403.0,Nc1cccc(S(=O)(=O)c2cccc(N)c2)c1,CC(C)CO,mol_6403_solute_opt,mol_6403_solvent_opt,50,29,283.15,-2.1936563477293096,"3,3′-diaminodiphenyl sulfone",isobutanol
6404.0,CSCCC(NC(C)=O)C(=O)O,CC(C)CO,mol_6404_solute_opt,mol_6404_solvent_opt,50,40,283.15,-0.5918836778719482,N-acetyl-DL-methionine,isobutanol
6405.0,Cc1cc(C(=O)O)ccc1[N+](=O)[O-],CC(C)CO,mol_6405_solute_opt,mol_6405_solvent_opt,50,42,306.95,-1.0135665023496925,3-methyl-4-nitrobenzoic acid,isobutanol
6406.0,Cc1ccc([N+](=O)[O-])c(C(=O)O)c1,CC(C)CO,mol_6406_solute_opt,mol_6406_solvent_opt,50,42,293.75,0.140376161472404,5-methyl-2-nitrobenzoic acid,isobutanol
6407.0,Cc1cccc(C(=O)O)c1[N+](=O)[O-],CC(C)CO,mol_6407_solute_opt,mol_6407_solvent_opt,50,40,297.15,-0.9544747290451616,3-methyl-2-nitrobenzoic acid,isobutanol
6408.0,CCOC(=O)[C@@H](C)Oc1ccc(Oc2cnc3cc(Cl)ccc3n2)cc1,CC(C)CO,mol_6408_solute_opt,mol_6408_solvent_opt,50,39,278.15,-1.6677096150070954,Quizalofop-p-ethyl,isobutanol
6409.0,Cc1c(N)cccc1C(=O)O,CC(C)CO,mol_6409_solute_opt,mol_6409_solvent_opt,50,44,288.15,-1.9136437748240296,3-amino-2-methylbenzoic acid,isobutanol
6410.0,O=C(O)COc1ccc(Cl)cc1,CC(C)CO,mol_6410_solute_opt,mol_6410_solvent_opt,50,42,283.15,-0.7914498610056112,4-chlorophenoxyacetic acid,isobutanol
6411.0,CC(C)(C)OC(=O)N1CCC[C@H]1C(=O)O,CC(C)CO,mol_6411_solute_opt,mol_6411_solvent_opt,50,33,283.15,-0.0717754935791354,Boc-L-proline,isobutanol
6412.0,Nc1cccc(C(=O)O)c1,CC(C)CO,mol_6412_solute_opt,mol_6412_solvent_opt,50,41,283.15,-1.2554912597747427,M-aminobenzoic acid,isobutanol
6413.0,O=C(O)c1cccc([N+](=O)[O-])c1O,CC(C)CO,mol_6413_solute_opt,mol_6413_solvent_opt,50,43,278.15,-0.5777096511908779,3-nitrosalicylic acid,isobutanol
6414.0,CNC(=O)c1cc(Oc2ccc(NC(=O)Nc3ccc(Cl)c(C(F)(F)F)c3)cc2)ccn1,CC(C)CO,mol_6414_solute_opt,mol_6414_solvent_opt,50,24,273.15,-2.3207153613990097,Sorafenib,isobutanol
6415.0,CSc1nc2cc(Oc3cccc(Cl)c3Cl)c(Cl)cc2[nH]1,CC(C)CO,mol_6415_solute_opt,mol_6415_solvent_opt,50,43,278.15,-1.2993957951298536,Triclabendazole,isobutanol
6416.0,COc1cc(C=O)cc(OC)c1OC,CC(C)CO,mol_6416_solute_opt,mol_6416_solvent_opt,50,39,278.15,-1.303634268460686,"3,4,5-trimethoxybenzaldehyde",isobutanol
6417.0,CC(S)C(=O)NCC(=O)O,CC(C)CO,mol_6417_solute_opt,mol_6417_solvent_opt,50,38,273.15,-0.87517033913981,Tiopronin,isobutanol
6418.0,O=C(O)CNC(=O)OCc1ccccc1,CC(C)CO,mol_6418_solute_opt,mol_6418_solvent_opt,50,39,283.15,-0.7824425912620782,N-carbobenzyloxyglycine,isobutanol
6419.0,CC(C)(C)OC(=O)N[C@@H](CC(N)=O)C(=O)O,CC(C)CO,mol_6419_solute_opt,mol_6419_solvent_opt,50,38,283.15,-2.124963868598865,Boc-L-asparagine,isobutanol
6420.0,O=C(O)c1ccc(-c2ccccc2)cc1,CC(C)CO,mol_6420_solute_opt,mol_6420_solvent_opt,50,42,293.15,-1.523652982883421,4-biphenylcarboxylic acid,isobutanol
6421.0,NC(=O)C[C@H](NC(=O)OCc1ccccc1)C(=O)O,CC(C)CO,mol_6421_solute_opt,mol_6421_solvent_opt,50,35,283.15,-3.270660142804354,N-benzyloxycarbonyl-L-asparagine,isobutanol
6422.0,CCc1nc(N)nc(N)c1-c1ccc(Cl)cc1,CC(C)CO,mol_6422_solute_opt,mol_6422_solvent_opt,50,40,278.15,-2.1277671170176955,Pyrimethamine,isobutanol
6423.0,C=CC(=O)NC(C)(C)CC(C)=O,CC(C)CO,mol_6423_solute_opt,mol_6423_solvent_opt,50,40,272.05,0.472096932844994,Diacetone acrylamide,isobutanol
6424.0,CC(=O)Nc1ccc([N+](=O)[O-])cc1,CC(C)CO,mol_6424_solute_opt,mol_6424_solvent_opt,50,41,278.15,-1.8389954280538665,p-Nitroacetanilide,isobutanol
6425.0,O=C([O-])c1nc[nH]n1,CC(C)CO,mol_6425_solute_opt,mol_6425_solvent_opt,50,48,278.65,-1.9463664137473264,"Methyl 1,2,4-triazole-3-carboxylate",isobutanol
6426.0,CS(N)(=O)=O,CC(C)CO,mol_6426_solute_opt,mol_6426_solvent_opt,50,47,283.2,-0.8871846879756872,Methanesulfonamide,isobutanol
6427.0,O=C(O)c1cc([N+](=O)[O-])ccc1O,CC(C)CO,mol_6427_solute_opt,mol_6427_solvent_opt,50,41,278.15,-0.8585202692767469,5-nitroSalicylic acid,isobutanol
6428.0,O=c1cc(-c2ccccc2)oc2c1ccc1ccccc12,CC(C)CO,mol_6428_solute_opt,mol_6428_solvent_opt,50,42,273.15,-2.022014107916671,α-Naphthoflavone,isobutanol
6429.0,O=C(N[C@@H](Cc1c[nH]c2ccccc12)C(=O)O)OCc1ccccc1,CC(C)CO,mol_6429_solute_opt,mol_6429_solvent_opt,50,42,283.15,-0.969768002935604,N-benzyloxycarbonyl-L-tryptophan,isobutanol
6430.0,OCCOc1ccc2ccccc2c1-c1c(OCCO)ccc2ccccc12,CC(C)CO,mol_6430_solute_opt,mol_6430_solvent_opt,50,33,283.15,-2.252093635861735,"2,2’-bis(2-hydroxyethoxy)-1,1′-binaphthalene",isobutanol
6431.0,CC(C)(C)OC(=O)N[C@@H](CCC(N)=O)C(=O)O,CC(C)CO,mol_6431_solute_opt,mol_6431_solvent_opt,50,41,283.15,-0.4466781903186104,Boc-L-glutamine,isobutanol
6432.0,Nc1ccccn1,CC(C)CO,mol_6432_solute_opt,mol_6432_solvent_opt,50,45,273.15,-0.2140732529603675,2-aminopyridine,isobutanol
6433.0,CC(C)(C)NCC(O)c1ccc(O)c(CO)c1,CC(C)CO,mol_6433_solute_opt,mol_6433_solvent_opt,50,34,283.15,-1.7728314398932623,Salbutamol,isobutanol
6434.0,CS(=O)(=O)Nc1ccc([N+](=O)[O-])cc1Oc1ccccc1,CC(C)CO,mol_6434_solute_opt,mol_6434_solvent_opt,50,43,273.15,-2.7475379282970165,Nimesulide,isobutanol
6435.0,CCCc1nc(C(C)(C)O)c(C(=O)OCC)n1Cc1ccc(-c2ccccc2-c2nnnn2C(c2ccccc2)(c2ccccc2)c2ccccc2)cc1,CC(C)CO,mol_6435_solute_opt,mol_6435_solvent_opt,50,28,278.15,-2.8802502514698376,N-trityl olmesartan ethyl ester,isobutanol
6436.0,O=C(O)c1cc([N+](=O)[O-])cc([N+](=O)[O-])c1,CC(C)CO,mol_6436_solute_opt,mol_6436_solvent_opt,50,41,283.15,-1.1473225572098131,"3,5-dinitrobenzoic acid",isobutanol
6437.0,C[C@H]1[C@H](OC(=O)CCC(=O)O)O[C@@H]2O[C@@]3(C)CC[C@H]4[C@H](C)CC[C@@H]1[C@@]24OO3,CC(C)CO,mol_6437_solute_opt,mol_6437_solvent_opt,50,33,283.14,-1.2244173231265063,Artesunate,isobutanol
6438.0,CC(=O)c1ccc(O)cc1O,CC(C)CO,mol_6438_solute_opt,mol_6438_solvent_opt,50,42,293.15,-0.0374333730755136,"2′,4′-dihydroxyacetophenone",isobutanol
6439.0,Nc1ccnc(=O)[nH]1,CC(C)CO,mol_6439_solute_opt,mol_6439_solvent_opt,50,44,288.15,-2.804708614450027,Cytosine,isobutanol
6440.0,Clc1ccccc1C(c1ccccc1)(c1ccccc1)n1ccnc1,CC(C)CO,mol_6440_solute_opt,mol_6440_solvent_opt,50,41,283.09,-0.7590696770818024,Clotrimazole,isobutanol
6441.0,CC(=O)Oc1cc(C)c(OC(C)=O)c2ccccc12,CC(C)CO,mol_6441_solute_opt,mol_6441_solvent_opt,50,37,283.1,-1.635129334003222,Menadiol diacetate,isobutanol
6442.0,NC(=O)CC[C@H](N)C(=O)O,CC(C)CO,mol_6442_solute_opt,mol_6442_solvent_opt,50,42,283.15,-3.2531429194058097,L-glutamine,isobutanol
6443.0,c1ccc(-c2ccc(C(c3ccccc3)n3ccnc3)cc2)cc1,CC(C)CO,mol_6443_solute_opt,mol_6443_solvent_opt,50,38,283.14,-1.4712672747622606,Bifonazole,isobutanol
6444.0,CC(O)(CS(=O)(=O)c1ccc(F)cc1)C(=O)Nc1ccc(C#N)c(C(F)(F)F)c1,CC(C)CO,mol_6444_solute_opt,mol_6444_solvent_opt,50,30,278.15,-2.600118116868367,Bicalutamide,isobutanol
6445.0,O=S1(=O)OC(c2ccc(O)cc2)(c2ccc(O)cc2)c2ccccc21,CC(C)CO,mol_6445_solute_opt,mol_6445_solvent_opt,50,42,278.15,-3.613904235853715,Phenol red,isobutanol
6446.0,O=C(O)/C=C/c1cccc(O)c1,CC(C)CO,mol_6446_solute_opt,mol_6446_solvent_opt,50,42,293.15,-0.4507130445449578,trans-3-hydroxycinnamic acid,isobutanol
6447.0,O=C(N[C@@H](CO)C(=O)O)OCc1ccccc1,CC(C)CO,mol_6447_solute_opt,mol_6447_solvent_opt,50,38,283.15,-0.6084940697773712,N-benzyloxycarbonyl-L-serine,isobutanol
6448.0,Cc1cccc(C(=O)O)c1,CC(C)CO,mol_6448_solute_opt,mol_6448_solvent_opt,50,42,299.15,0.1440900509368043,m-methylbenzoic acid,isobutanol
6449.0,O=C(O)c1cccc(C(=O)O)c1,CC(C)CO,mol_6449_solute_opt,mol_6449_solvent_opt,50,44,318.65,-1.5777859624280526,Isophthalic acid,isobutanol
6450.0,CC(C)C[C@H](N)C(=O)O,CC(C)CO,mol_6450_solute_opt,mol_6450_solvent_opt,50,33,283.15,-2.7788199611326427,L-leucine,isobutanol
6451.0,CC(C)[C@H](N)C(=O)O,CC(C)CO,mol_6451_solute_opt,mol_6451_solvent_opt,50,42,283.15,-3.262594292952584,L-valine,isobutanol
6452.0,N[C@@H](Cc1ccccc1)C(=O)O,CC(C)CO,mol_6452_solute_opt,mol_6452_solvent_opt,50,41,283.15,-3.087071664981164,L-phenylalanine,isobutanol
6453.0,OC[C@@H](O)CN1CCN(c2ccccc2)CC1,CC(C)CO,mol_6453_solute_opt,mol_6453_solvent_opt,50,42,283.1,-2.021118445598099,Levodropropizine,isobutanol
6454.0,COc1ccc(C(=O)O)cc1,CC(C)CO,mol_6454_solute_opt,mol_6454_solvent_opt,50,43,283.15,-1.3212034536809798,4-methoxybenzoic acid,isobutanol
6455.0,Nc1ncnc2c1ncn2CCOCP(=O)(O)O,CC(C)CO,mol_6455_solute_opt,mol_6455_solvent_opt,50,40,278.15,-2.696953043088912,Adefovir,isobutanol
6456.0,O=c1ccc2cc(O)c(O)cc2o1,CC(C)CO,mol_6456_solute_opt,mol_6456_solvent_opt,50,44,273.15,-0.2103315125642084,Esculetin,isobutanol
6457.0,COc1ccc(C(=O)c2ccc(OC)cc2)cc1,CC(C)CO,mol_6457_solute_opt,mol_6457_solvent_opt,50,40,293.15,-1.9610021420389183,"4,4′-dimethoxybenzophenone",isobutanol
6458.0,CC(=O)N[C@H](C(=O)O)C(C)C,CC(C)CO,mol_6458_solute_opt,mol_6458_solvent_opt,50,39,283.15,-0.4135924191837131,N-acetyl-L-valine,isobutanol
6459.0,O=C1CC[C@@H](C(=O)O)N1,CC(C)CO,mol_6459_solute_opt,mol_6459_solvent_opt,50,41,283.15,-0.9244230742678092,L-pyroglutamic acid,isobutanol
6460.0,COc1ccc(/C=C/C(=O)O)cc1OC,CC(C)CO,mol_6460_solute_opt,mol_6460_solvent_opt,50,35,283.15,-1.6590342990529825,"3,4-dimethoxycinnamic acid",isobutanol
6461.0,c1ccc(-n2c3ccccc3c3ccccc32)cc1,CC(C)CO,mol_6461_solute_opt,mol_6461_solvent_opt,50,35,283.15,-1.3815278110023577,9-phenylcarbazole,isobutanol
6462.0,CC(C)[C@H](NC(=O)OCC1c2ccccc2-c2ccccc21)C(=O)O,CC(C)CO,mol_6462_solute_opt,mol_6462_solvent_opt,50,39,283.15,-0.9718941260333986,Fmoc-L-valine,isobutanol
6463.0,c1ccc2[nH]cnc2c1,CC(C)CO,mol_6463_solute_opt,mol_6463_solvent_opt,50,43,283.15,-0.0542967065906333,Benzimidazole,isobutanol
6464.0,CC[C@H](C)[C@H](N)C(=O)O,CC(C)CO,mol_6464_solute_opt,mol_6464_solvent_opt,50,35,283.15,-1.9350000299886063,L-isoleucine,isobutanol
6465.0,Cc1cc(Cl)ccc1OCC(=O)O,CC(C)CO,mol_6465_solute_opt,mol_6465_solvent_opt,50,39,278.15,0.0331660472037487,2-methyl-4-chlorophenoxyacetic acid,isobutanol
6466.0,C[C@@H](Oc1ccc(Oc2nc3ccc(Cl)cc3o2)cc1)C(=O)N(C)c1ccccc1F,CC(C)CO,mol_6466_solute_opt,mol_6466_solvent_opt,50,37,278.15,-1.4175189439393432,Metamifop,isobutanol
6467.0,O=C(O)c1ccc(Cl)cc1Cl,CC(C)CO,mol_6467_solute_opt,mol_6467_solvent_opt,50,48,273.15,-0.5623853954693173,"2,4-dichlorobenzoic acid",isobutanol
6468.0,Cn1nccc1O,CC(C)CO,mol_6468_solute_opt,mol_6468_solvent_opt,50,44,278.15,0.0867562096809951,5-hydroxy-1-methylpyrazole,isobutanol
6469.0,Nc1ncccn1,CC(C)CO,mol_6469_solute_opt,mol_6469_solvent_opt,50,43,272.65,-1.0328522772515725,2-aminopyrimidine,isobutanol
6470.0,Clc1cc(Cl)cc(Cl)c1,CC(C)CO,mol_6470_solute_opt,mol_6470_solvent_opt,50,48,273.15,-0.5552771456050243,"1,3,5-trichlorobenzene",isobutanol
6471.0,COc1cc(C(=O)O)ccc1O,CC(C)CO,mol_6471_solute_opt,mol_6471_solvent_opt,50,42,293.15,-0.90774846558217,Vanillic acid,isobutanol
6472.0,O=S(=O)(c1ccc(O)cc1)c1ccc(O)cc1,CC(C)CO,mol_6472_solute_opt,mol_6472_solvent_opt,50,33,278.15,-2.8964755745538024,"4,4′-dihydroxydiphenylsulfone",isobutanol
6473.0,CC(=O)Oc1ccccc1C(=O)O,CC(C)CO,mol_6473_solute_opt,mol_6473_solvent_opt,50,40,276.36,-0.963230271469624,Aspirin,isobutanol
6474.0,O=C(O)c1cc(C(=O)O)cc(C(=O)O)c1,CC(C)CO,mol_6474_solute_opt,mol_6474_solvent_opt,50,39,306.0,-1.0758302788428646,"1,3,5-benzenetricarboxylic acid",isobutanol
6475.0,CCOC(=O)c1ccc(N)cc1,CC(C)CO,mol_6475_solute_opt,mol_6475_solvent_opt,50,40,283.15,-0.5005012747759879,Benzocaine,isobutanol
6476.0,O=C(O)/C=C/c1ccc(O)cc1,CC(C)CO,mol_6476_solute_opt,mol_6476_solvent_opt,50,43,293.15,-0.6717412412017058,p-coumaric acid,isobutanol
6477.0,CC(=O)c1ccc(S(C)(=O)=O)cc1,CC(C)CO,mol_6477_solute_opt,mol_6477_solvent_opt,50,38,278.15,-1.0870261671127894,4-methylsulfonylacetophenone,isobutanol
6478.0,N#Cc1cccnc1,CC(C)CO,mol_6478_solute_opt,mol_6478_solvent_opt,50,45,268.15,-0.4958173450309456,3-cyanopyridine,isobutanol
6479.0,N#Cc1ccncc1,CC(C)CO,mol_6479_solute_opt,mol_6479_solvent_opt,50,48,268.15,-0.8256425986821215,4-cyanopyridine,isobutanol
6480.0,N#Cc1cccc([N+](=O)[O-])c1,CC(C)CO,mol_6480_solute_opt,mol_6480_solvent_opt,50,45,278.15,-1.750339871979007,3-nitrobenzonitrile,isobutanol
6481.0,OC/C=C/c1ccccc1,CC(C)CO,mol_6481_solute_opt,mol_6481_solvent_opt,50,42,253.15,-0.0593371197971247,Trans-cinnamyl alcohol,isobutanol
6482.0,CO/C=C(/C(=O)OC)c1ccccc1Oc1cc(Oc2ccccc2C#N)ncn1,CC(C)CO,mol_6482_solute_opt,mol_6482_solvent_opt,50,33,288.15,-2.319106349035653,Azoxystrobin,isobutanol
6483.0,O=C(c1ccccc1)C(O)c1ccccc1,CC(C)CO,mol_6483_solute_opt,mol_6483_solvent_opt,50,38,273.15,-2.197549291647038,Benzoin,isobutanol
6484.0,O=C(O)c1ccc(C(=O)O)o1,CC(C)CO,mol_6484_solute_opt,mol_6484_solvent_opt,50,45,313.15,-1.747440159199403,"2,5-furandicarboxylic acid",isobutanol
6485.0,CS(=O)(=O)c1ccc([C@@H](O)[C@@H](CF)NC(=O)C(Cl)Cl)cc1,CC(C)CO,mol_6485_solute_opt,mol_6485_solvent_opt,50,25,283.15,-2.494294692773418,Florfenicol,isobutanol
6486.0,Cc1cc(C)nc(Nc2ccccc2)n1,CC(C)CO,mol_6486_solute_opt,mol_6486_solvent_opt,50,42,283.15,-0.7851466498893567,Pyrimethanil,isobutanol
6487.0,O=C(O)Cc1ccccc1Cl,CC(C)CO,mol_6487_solute_opt,mol_6487_solvent_opt,50,43,273.15,0.289280985353874,2-chlorophenylacetic acid,isobutanol
6488.0,O=C(c1ccccc1)c1ccccc1,CC(C)CO,mol_6488_solute_opt,mol_6488_solvent_opt,50,43,278.15,0.2342058359316993,Benzophenone,isobutanol
6489.0,NC(=O)c1cccnc1,CC(C)CO,mol_6489_solute_opt,mol_6489_solvent_opt,50,40,283.15,-0.6063481950200493,Nicotinamide,isobutanol
6490.0,O=C(O)c1cc2ccccc2cc1O,CC(C)CO,mol_6490_solute_opt,mol_6490_solvent_opt,50,38,293.15,-0.7914142321310721,3-hydroxy-2-naphthoic acid,isobutanol
6491.0,N#CCc1ccc([N+](=O)[O-])cc1,CC(C)CO,mol_6491_solute_opt,mol_6491_solvent_opt,50,44,278.15,-2.033960589214872,p-nitrophenylacetonitrile,isobutanol
6492.0,CCCN(CCC)S(=O)(=O)c1ccc(C(=O)O)cc1,CC(C)CO,mol_6492_solute_opt,mol_6492_solvent_opt,50,29,283.15,-1.4005805990593447,Probenecid,isobutanol
6493.0,Nc1nc(Cl)c2[nH]cnc2n1,CC(C)CO,mol_6493_solute_opt,mol_6493_solvent_opt,50,43,278.15,-3.014814681500108,2-amino-6-chloropurine,isobutanol
6494.0,COC(=O)Nc1nc2ccc(C(=O)c3ccc(F)cc3)cc2[nH]1,CC(C)CO,mol_6494_solute_opt,mol_6494_solvent_opt,50,37,283.15,-3.881315160621696,Flubendazole,isobutanol
6495.0,NC(=O)c1ccc(N)cc1,CC(C)CO,mol_6495_solute_opt,mol_6495_solvent_opt,50,36,283.15,-1.582513354608874,4-aminobenzamide,isobutanol
6496.0,N#Cc1cccc([N+](=O)[O-])c1C#N,CC(C)CO,mol_6496_solute_opt,mol_6496_solvent_opt,50,44,278.15,-2.378735371779153,3-nitrophthalonitrile,isobutanol
6497.0,NC(=O)c1ccc([N+](=O)[O-])cc1,CC(C)CO,mol_6497_solute_opt,mol_6497_solvent_opt,50,44,283.15,-2.085504068684822,p-Nitrobenzamide,isobutanol
6498.0,NS(=O)(=O)c1cc2c(cc1Cl)NCNS2(=O)=O,CC(C)CO,mol_6498_solute_opt,mol_6498_solvent_opt,50,43,282.85,-3.1418869814216124,Hydrochlorothiazide,isobutanol
6499.0,N#CCc1ccccc1[N+](=O)[O-],CC(C)CO,mol_6499_solute_opt,mol_6499_solvent_opt,50,39,278.15,-1.4367700481682435,o-nitrophenylacetonitrile,isobutanol
6500.0,CC(=NC#N)N(C)Cc1ccc(Cl)nc1,CC(C)CO,mol_6500_solute_opt,mol_6500_solvent_opt,50,42,278.15,-1.5106414815101827,Acetamiprid,isobutanol
6501.0,NC(=O)c1ccccc1N,CC(C)CO,mol_6501_solute_opt,mol_6501_solvent_opt,50,38,273.15,-0.9495309145539336,2-aminobenzamide,isobutanol
6502.0,NS(=O)(=O)c1ccccc1,CC(C)CO,mol_6502_solute_opt,mol_6502_solvent_opt,50,47,273.15,-1.3676585628017035,Benzenesulfonamide,isobutanol
6503.0,Cc1ccccc1S(N)(=O)=O,CC(C)CO,mol_6503_solute_opt,mol_6503_solvent_opt,50,45,273.15,-1.6449586072744464,o-Toluenesulfonamide,isobutanol
6504.0,O=C1C=CC(=O)N1c1ccccc1Br,CC(C)CO,mol_6504_solute_opt,mol_6504_solvent_opt,50,41,278.15,-1.144276473346941,"1-(2-bromo-phenyl)-pyrrole-2,5-dione",isobutanol
6505.0,Cc1nc(N)nc(N)n1,CC(C)CO,mol_6505_solute_opt,mol_6505_solvent_opt,50,45,283.15,-2.368573226397024,Acetoguanamine,isobutanol
6506.0,COC(=O)c1ccc(C(=O)OC)cc1,CC(C)CO,mol_6506_solute_opt,mol_6506_solvent_opt,50,41,283.3,-2.003647871066643,Dimethyl terephthalate,isobutanol
6507.0,N[C@H](Cc1c[nH]cn1)C(=O)O,CC(C)CO,mol_6507_solute_opt,mol_6507_solvent_opt,50,37,293.15,-2.228412134510899,D-histidine,isobutanol
6508.0,CN(C)[C@@H]1C(=O)C(C(N)=O)=C(O)[C@@]2(O)C(=O)C3=C(O)c4c(O)cccc4C[C@H]3C[C@@H]12,CC(C)CO,mol_6508_solute_opt,mol_6508_solvent_opt,50,36,278.15,-3.384394964832236,Sancycline,isobutanol
6509.0,OC[C@H]1O[C@@H](Oc2ccc(O)cc2)[C@H](O)[C@@H](O)[C@@H]1O,CC(C)CO,mol_6509_solute_opt,mol_6509_solvent_opt,50,38,283.15,-2.609885343200945,β-Arbutin,isobutanol
6510.0,C[C@H](N)C(=O)O,CC(C)CO,mol_6510_solute_opt,mol_6510_solvent_opt,50,46,283.15,-2.493110980792729,L-alanine,isobutanol
6511.0,COC(=O)C(C)(C)N=NC(C)(C)C(=O)OC,CC(C)CO,mol_6511_solute_opt,mol_6511_solvent_opt,50,35,252.65,-1.206158999476033,"2,2′-azobis(2-methylpropionate)",isobutanol
6512.0,NC(N)=NC(N)=NCCc1ccccc1,CC(C)CO,mol_6512_solute_opt,mol_6512_solvent_opt,50,37,278.15,-2.2449288334096567,Phenformin,isobutanol
6513.0,O=Cc1ccc(O)c(Br)c1,CC(C)CO,mol_6513_solute_opt,mol_6513_solvent_opt,50,43,278.15,-0.9648316122528594,3-bromo-4-hydroxybenzaldehyde,isobutanol
6514.0,CC1(C)NC(=O)NC1=O,CC(C)CO,mol_6514_solute_opt,mol_6514_solvent_opt,50,40,283.15,-0.566763786132451,"5,5-dimethylhydantoin",isobutanol
6515.0,ON(Cc1ccccc1)Cc1ccccc1,CC(C)CO,mol_6515_solute_opt,mol_6515_solvent_opt,50,34,273.15,-2.070227546969173,"N,N-dibenzylhydroxylamine",isobutanol
6516.0,CC(=O)N[C@@H](CC(C)C)C(=O)O,CC(C)CO,mol_6516_solute_opt,mol_6516_solvent_opt,50,39,283.15,-0.7854447979462986,N-acetyl-L-leucine,isobutanol
6517.0,CC(C)Cc1ccc(C(C)C(=O)O)cc1,CC(C)CO,mol_6517_solute_opt,mol_6517_solvent_opt,50,37,282.89,0.1193238027539018,Ibuprofen,isobutanol