pair_id,SMILES_Solute,SMILES_Solvent,Solute_name,Solvent_name,Total_conformers,Filtered_conformers,Temperature_K,LogS,Compound_Name,Solvent
278.0,CN(Cc1ccccc1)CN1C(=O)C(=NNC(=O)c2ccccc2OCc2ccccc2)c2ccccc21,CCO,mol_278_solute_opt,mol_278_solvent_opt,50,24,298.15,-2.0923170538434195,N′-(1-(n-(methyl) benzylaminomethyl)-2-oxoindolin-3-ylidene)-2-(benzyloxy) benzohydrazide,ethanol
279.0,CN1CCN(C(=O)O[C@H]2c3nccnc3C(=O)N2c2ccc(Cl)cn2)CC1,CCO,mol_279_solute_opt,mol_279_solvent_opt,50,28,288.15,-2.4021435957877104,Eszopiclone,ethanol
280.0,O=[N+]([O-])c1cccc2c([N+](=O)[O-])cccc12,CCO,mol_280_solute_opt,mol_280_solvent_opt,50,41,273.15,-3.458108942734889,"1,5-dinitro-naphthalen",ethanol
281.0,COc1cc(/C=C/C(=O)O)cc(OC)c1O,CCO,mol_281_solute_opt,mol_281_solvent_opt,50,31,298.15,-0.683876998445126,Sinapic acid,ethanol
282.0,O=C(O)/C=C\C=C/C(=O)O,CCO,mol_282_solute_opt,mol_282_solvent_opt,50,38,298.15,-0.6950042335238716,"cis,cis-muconic acid",ethanol
283.0,COc1cc(-c2cc(-c3ccc(Br)cc3)[nH]c(=O)c2C#N)ccc1O,CCO,mol_283_solute_opt,mol_283_solvent_opt,50,31,298.15,-1.9167957085933487,"6-(4-bromophenyl)-4-(4-hydroxy-3-methoxyphenyl)-2-oxo-1,2-dihydropyridine-3-carbonitrile",ethanol
284.0,COc1cc(-c2cc(-c3ccc(Cl)cc3)[nH]c(=O)c2C#N)ccc1O,CCO,mol_284_solute_opt,mol_284_solvent_opt,50,29,298.15,-1.9046017572572569,"6-(4-chlorophenyl)-4-(4-hydroxy-3-methoxyphenyl)-2-oxo-1,2-dihydropyridine-3-carbonitrile",ethanol
285.0,COc1cc(-c2cc(-c3ccc(F)cc3)[nH]c(=O)c2C#N)ccc1O,CCO,mol_285_solute_opt,mol_285_solvent_opt,50,27,298.15,-1.886015270020981,"6-(4-fluorophenyl)-4-(4-hydroxy-3-methoxyphenyl)-2-oxo-1,2-dihydropyridine-3-carbonitrile",ethanol
286.0,COc1cc(-c2cc(-c3ccc(O)cc3)[nH]c(=O)c2C#N)ccc1O,CCO,mol_286_solute_opt,mol_286_solvent_opt,50,26,298.15,-1.896054771898965,"4-(4-hydroxy-3-methoxyphenyl)-6-(4-hydroxyphenyl)-2-oxo-1,2-dihydropyridine-3 -carbonitrile",ethanol
287.0,COc1ccc(-c2cc(-c3ccc(O)c(OC)c3)c(C#N)c(=O)[nH]2)cc1,CCO,mol_287_solute_opt,mol_287_solvent_opt,50,24,298.15,-1.9292154317940653,"4-(4-hydroxy-3-methoxyphenyl)-6-(4-methoxyphenyl)-2-oxo-1,2-dihydropyridine-3-carbonitrile",ethanol
288.0,CCOc1ccc(C2NC(=O)NC=C2C(=O)c2cc(OC)c(OC)c(OC)c2)cc1,CCO,mol_288_solute_opt,mol_288_solvent_opt,50,27,298.15,-2.2998262681422674,"4-(4-ethoxyphenyl)-5-(3,4,5 trimethoxybenzoyl)-3,4-dihydropyrimidine-2(1H)-one (DHP-5)",ethanol
289.0,O=C(O)/C=C/c1ccc(O)c(O)c1,CCO,mol_289_solute_opt,mol_289_solvent_opt,50,27,293.15,-0.5386512633514767,Caffeic acid,ethanol
290.0,C=C1CC[C@H](O)C/C1=C/C=C1\CCC[C@]2(C)[C@@H]([C@H](C)CCCC(C)C)CC[C@@H]12,CCO,mol_290_solute_opt,mol_290_solvent_opt,50,21,273.2,0.4404676955222366,Vitamin D3,ethanol
291.0,Cc1cnc(N)s1,CCO,mol_291_solute_opt,mol_291_solvent_opt,50,42,278.15,-0.0503368353582614,2-amino-5-methylthiazole,ethanol
292.0,C1OCOCO1,CCO,mol_292_solute_opt,mol_292_solvent_opt,50,42,288.15,0.4315736002948492,"1,3,5-trioxane",ethanol
293.0,COc1cc(/C=C/C(=O)O)ccc1O,CCO,mol_293_solute_opt,mol_293_solvent_opt,50,33,298.2,-0.3758649968028402,Ferulic acid,ethanol
294.0,Cc1ccc(-c2ccccc2C#N)cc1,CCO,mol_294_solute_opt,mol_294_solvent_opt,50,37,268.05,-0.5956426902750169,2-cyano-4′-methylbiphenyl,ethanol
295.0,CCOC(=O)CCC(=O)O[C@H]1[C@H](O[C@@H]2[C@@H](C)[C@H](O[C@H]3C[C@@](C)(OC)[C@@H](O)[C@H](C)O3)[C@@H](C)C(=O)O[C@H](CC)[C@@](C)(O)[C@H](O)[C@@H](C)C(=O)[C@H](C)C[C@@]2(C)O)O[C@H](C)C[C@@H]1N(C)C,CCO,mol_295_solute_opt,mol_295_solvent_opt,50,11,288.15,-0.8784646959783652,Erythromycin ethylsuccinate,ethanol
296.0,O=Cc1ccc(O)cc1,CCO,mol_296_solute_opt,mol_296_solvent_opt,50,39,278.15,-0.1060186296736746,4-hydroxybenzaldehyde,ethanol
297.0,FC(F)(F)c1cccnc1Cl,CCO,mol_297_solute_opt,mol_297_solvent_opt,50,44,273.15,0.44270469836896,2-chloro-3-(trifluoromethyl)pyridine,ethanol
298.0,O=C(O)CNC(=O)c1ccccc1,CCO,mol_298_solute_opt,mol_298_solvent_opt,50,34,298.15,-0.5912662363426362,Hippuric acid,ethanol
299.0,O=C1CCC(c2ccccc2)=NN1,CCO,mol_299_solute_opt,mol_299_solvent_opt,50,37,293.2,-1.1547009628947695,"6-phenyl-4,5-dihydropyridazin-3(2H)-one",ethanol
300.0,O=C(O)c1ccccc1Nc1cccc(C(F)(F)F)c1,CCO,mol_300_solute_opt,mol_300_solvent_opt,50,36,298.2,0.0953010788030651,Flufenamic acid,ethanol
301.0,Cc1cc(N)n(-c2ccccc2)n1,CCO,mol_301_solute_opt,mol_301_solvent_opt,50,34,283.15,0.1572152594099117,5-amino-3-methyl-1-phenylpyrazole,ethanol
302.0,Cc1c(OCC(F)(F)F)ccnc1CS(=O)c1nc2ccccc2[nH]1,CCO,mol_302_solute_opt,mol_302_solvent_opt,50,21,278.15,-0.7651823001219091,Lansoprazole,ethanol
303.0,CCN(CC)CC(=O)Nc1c(C)cccc1C,CCO,mol_303_solute_opt,mol_303_solvent_opt,50,27,292.15,-1.1302221695023382,Lidocaine,ethanol
304.0,O=C(c1ccccc1)C(O)c1ccccc1,CCO,mol_304_solute_opt,mol_304_solvent_opt,50,31,283.15,-1.7237235029014066,Benzoin,ethanol
305.0,Cc1occc(=O)c1O,CCO,mol_305_solute_opt,mol_305_solvent_opt,50,39,288.15,-0.8086357370749863,Maltol,ethanol
306.0,Cc1c(N)c(=O)n(-c2ccccc2)n1C,CCO,mol_306_solute_opt,mol_306_solvent_opt,50,33,299.05,0.6814402953974031,4-aminoantipyrine,ethanol
307.0,COc1c(C)c2c(c(O)c1C/C=C(\C)CCC(=O)OCCN1CCOCC1)C(=O)OC2,CCO,mol_307_solute_opt,mol_307_solvent_opt,50,20,298.2,-0.9783458284634317,Mycophenolate mofetil,ethanol
308.0,CC(C)(C)c1cc(CCC(=O)NCCCCCCNC(=O)CCc2cc(C(C)(C)C)c(O)c(C(C)(C)C)c2)cc(C(C)(C)C)c1O,CCO,mol_308_solute_opt,mol_308_solvent_opt,50,13,283.15,-0.8689430450804606,"1,6-bis[3-(3,5-di-tert-butyl-4-hydroxyphenyl)propionamido]hexane",ethanol
309.0,O=c1cc(-c2ccc(O)c(O)c2)oc2cc(O)cc(O)c12,CCO,mol_309_solute_opt,mol_309_solvent_opt,50,33,298.2,-1.493501630038053,Luteolin,ethanol
310.0,OC[C@H]1O[C@@H](Oc2c(O)cc(O)cc2/C=C/c2ccc(O)cc2)[C@H](O)[C@@H](O)[C@@H]1O,CCO,mol_310_solute_opt,mol_310_solvent_opt,50,22,278.15,-0.8764956569534351,"2,3,5,4′-tetrahydroxystilbene-2-o-β-d-glucoside",ethanol
311.0,Clc1ccccc1C(c1ccccc1)(c1ccccc1)n1ccnc1,CCO,mol_311_solute_opt,mol_311_solvent_opt,50,21,293.2,-0.5718056680737514,Clotrimazole,ethanol
312.0,O=c1[nH]c2ccccc2n1CCCN1CCC(n2c(=O)[nH]c3cc(Cl)ccc32)CC1,CCO,mol_312_solute_opt,mol_312_solvent_opt,50,28,278.15,-3.8269218244779952,Domperidone,ethanol
313.0,N[C@@H](Cc1ccccc1)C(=O)O,CCO,mol_313_solute_opt,mol_313_solvent_opt,50,32,288.15,-2.814542670451064,L-phenylalanine,ethanol
314.0,Cc1cc(=O)n(-c2ccccc2)n1C,CCO,mol_314_solute_opt,mol_314_solvent_opt,50,30,288.15,0.4476582534096787,Antipyrine,ethanol
315.0,COc1ccc2cc([C@H](C)C(=O)O)ccc2c1,CCO,mol_315_solute_opt,mol_315_solvent_opt,50,31,293.2,-0.6672259535711373,(S)-Naproxen,ethanol
316.0,O=C(O)c1cccc2ccccc12,CCO,mol_316_solute_opt,mol_316_solvent_opt,50,34,293.15,-0.3031984870162504,1-naphthoic acid,ethanol
317.0,CC1=CC(=O)C(C(C)C)=CC1=O,CCO,mol_317_solute_opt,mol_317_solvent_opt,50,36,298.2,-0.5077794014389162,Thymoquinone,ethanol
318.0,Cc1nc2cc(N)ccc2s1,CCO,mol_318_solute_opt,mol_318_solvent_opt,50,37,288.5,-1.667404777905433,"2-methyl-1,3-benzothiazol-5-amine",ethanol
319.0,COc1ccc(-c2nn(-c3ccccc3)cc2/C=C/C(=O)c2nc3ccccc3[nH]2)cc1,CCO,mol_319_solute_opt,mol_319_solvent_opt,50,20,298.15,-2.2217291779453125,(E)‑1‑(1H‑benzo[d]imidazole‑2‑yl)‑3‑(3‑(4‑methxyphenyl)‑1‑phenyl‑1H‑pyrazol‑4‑yl) prop‑2‑en‑1-one,ethanol
320.0,COc1ccc(-c2nn(-c3ccccc3)cc2/C=C/C(=O)c2nc3ccccc3[nH]2)cc1OC,CCO,mol_320_solute_opt,mol_320_solvent_opt,50,24,298.15,-3.176107561263028,"(E)‑1‑(1H‑benzo[d]imidazole‑2‑yl)‑3‑(3‑(3,4‑dimethoxyphenyl)‑1‑phenyl‑1H‑pyrazol‑4‑yl)prop‑2‑en‑1-one",ethanol
321.0,COc1cccc(-c2nn(-c3ccccc3)cc2/C=C/C(=O)c2nc3ccccc3[nH]2)c1,CCO,mol_321_solute_opt,mol_321_solvent_opt,50,21,298.15,-2.908531289649197,(E)‑1‑(1H‑benzo[d]imidazole‑2‑yl)‑3‑(3‑methxyphenyl‑1H‑pyrazol‑4‑yl)prop‑2‑en-1-one,ethanol
322.0,O=C(/C=C/c1cn(-c2ccccc2)nc1-c1ccc(Cl)cc1)c1nc2ccccc2[nH]1,CCO,mol_322_solute_opt,mol_322_solvent_opt,50,20,298.15,-2.760936176987486,(E)‑1‑(1H‑benzo[d]imidazole‑2‑yl)‑3‑(3‑(4‑chlorophenyl)‑phenyl‑1H‑pyrazol‑4‑yl) prop‑2‑en‑1-one,ethanol
323.0,O=C(/C=C/c1cn(-c2ccccc2)nc1-c1ccc(F)cc1)c1nc2ccccc2[nH]1,CCO,mol_323_solute_opt,mol_323_solvent_opt,50,24,298.15,-1.8571630750504904,(E)‑1‑(1H‑benzo[d]imidazole‑2‑yl)‑3‑(3‑(4‑fluorophenyl)‑1H‑pyrazol‑4‑yl)pop‑2‑en‑1-one,ethanol
324.0,O=C(/C=C/c1cn(-c2ccccc2)nc1-c1cccc([N+](=O)[O-])c1)c1nc2ccccc2[nH]1,CCO,mol_324_solute_opt,mol_324_solvent_opt,50,22,298.15,-3.0255521514514947,(E)‑1‑(1H‑benzo[d]imidazole‑2‑yl)‑3‑(3‑(3‑nitrophenyl)‑1‑phenyl‑1H‑pyrazol‑4‑yl) prop‑2‑en‑1-one,ethanol
325.0,O=C(/C=C/c1cn(-c2ccccc2)nc1-c1ccccc1)c1nc2ccccc2[nH]1,CCO,mol_325_solute_opt,mol_325_solvent_opt,50,24,298.15,-2.8398686179147408,"(E)‑1‑(1H‑benzo[d]imidazole‑2‑yl)‑3‑(1, 3‑diphenyl‑1H‑pyrazol‑4‑yl) prop‑2‑en‑1-one",ethanol
326.0,O=C(/C=C/c1cn(-c2ccccc2)nc1-c1ccccc1Cl)c1nc2ccccc2[nH]1,CCO,mol_326_solute_opt,mol_326_solvent_opt,50,20,298.15,-2.746652937128054,(E)‑1‑(1H‑benzo[d]imidazole‑2-yl)‑3‑(3‑(2‑chlorophenyl)‑1‑phenyl‑1H‑pyrazol‑4‑yl) prop‑2‑en‑1-one,ethanol
327.0,Nc1ccc(S(=O)(=O)c2ccc(N)cc2)cc1,CCO,mol_327_solute_opt,mol_327_solvent_opt,50,24,283.15,-1.1989385403293895,Dapsone,ethanol
328.0,C=CC(=O)Nc1cc(Nc2nccc(-c3cn(C)c4ccccc34)n2)c(OC)cc1N(C)CCN(C)C,CCO,mol_328_solute_opt,mol_328_solvent_opt,50,18,298.2,-2.094329687354488,Osimertinib,ethanol
329.0,NC(=O)c1ccccc1,CCO,mol_329_solute_opt,mol_329_solvent_opt,50,42,283.15,-0.1288944171520919,Benzamide,ethanol
330.0,CC1(C)S[C@@H]2[C@H](NC(=O)[C@H](NC(=O)N3CCNC3=O)c3ccccc3)C(=O)N2[C@H]1C(=O)O,CCO,mol_330_solute_opt,mol_330_solvent_opt,50,28,278.15,-1.921636452537515,Azlocillin,ethanol
331.0,CC(=O)NS(=O)(=O)c1ccc(N)cc1,CCO,mol_331_solute_opt,mol_331_solvent_opt,50,42,278.15,-0.7510312190062812,Sulfacetamide,ethanol
332.0,NC(=O)Cc1ccccc1,CCO,mol_332_solute_opt,mol_332_solvent_opt,50,29,273.75,-0.7640506141231158,2-phenylacetamide,ethanol
334.0,COC(=O)c1cc(O)c(O)c(O)c1,CCO,mol_334_solute_opt,mol_334_solvent_opt,50,34,293.15,0.114572885471565,Methyl gallate,ethanol
335.0,C/C(=C/C(C)=N/c1c(C(C)C)cccc1C(C)C)Nc1c(C(C)C)cccc1C(C)C,CCO,mol_335_solute_opt,mol_335_solvent_opt,50,15,268.15,-1.8507514296148904,"N-(4-((2,6-Diisopropylphenyl)imino)pent-2-en-2-yl)-2,6-diisopropylaniline",ethanol
336.0,Cc1ccc(S(N)(=O)=O)cc1,CCO,mol_336_solute_opt,mol_336_solvent_opt,50,37,273.15,-0.5076000695920571,p-Toluenesulfonamide,ethanol
337.0,COc1ccccc1OCCNCC(O)COc1cccc2[nH]c3ccccc3c12,CCO,mol_337_solute_opt,mol_337_solvent_opt,50,23,288.15,-1.9330885454057791,Carvedilol,ethanol
338.0,CC(=O)OC(c1ccccc1)C(Cl)(Cl)Cl,CCO,mol_338_solute_opt,mol_338_solvent_opt,50,32,288.15,-0.8233848630855654,Alpha-(trichloromethyl) benzyl acetate,ethanol
339.0,CCc1cccc(CC)c1/N=C(C)/C=C(/C)Nc1c(CC)cccc1CC,CCO,mol_339_solute_opt,mol_339_solvent_opt,50,20,268.15,-1.5548451763468776,"N-(4-((2,6-diethylphenyl)imino)pent-2-en-2-yl)-2,6-diethylaniline",ethanol
340.0,CCCCCCCCCCCCCCCCCC(=O)O,CCO,mol_340_solute_opt,mol_340_solvent_opt,50,24,293.15,-1.3176533859269055,Stearic acid,ethanol
341.0,O=C1C2C3C=CC(C3)C2C(=O)N1O,CCO,mol_341_solute_opt,mol_341_solvent_opt,50,39,278.15,-0.2639386330114519,"N-hydroxy-5-norbornene-2,3-dicarboximide",ethanol
342.0,COc1cc2ncnc(Nc3ccc(F)c(Cl)c3)c2cc1OCCCN1CCOCC1,CCO,mol_342_solute_opt,mol_342_solvent_opt,50,19,298.2,-1.9772197693296327,Gefitinib,ethanol
343.0,Cc1c[nH]c(=O)[nH]c1=O,CCO,mol_343_solute_opt,mol_343_solvent_opt,50,40,283.15,-2.1712817480976274,Thymine,ethanol
344.0,Cn1c(=O)c2c(ncn2C)n(C)c1=O,CCO,mol_344_solute_opt,mol_344_solvent_opt,50,34,293.2,-1.8332208775173564,Caffeine,ethanol
345.0,CC1(C)[C@H](C(=O)O)[C@@H]1/C=C(\Cl)C(F)(F)F,CCO,mol_345_solute_opt,mol_345_solvent_opt,50,33,283.15,0.1597264876321042,Cyhalothric acid,ethanol
346.0,c1ccc(-c2cc3ccccc3[nH]2)cc1,CCO,mol_346_solute_opt,mol_346_solvent_opt,50,39,296.95,-0.7277053424377158,2-phenyl-1H-indole,ethanol
347.0,C[C@]12CC[C@@H]3c4ccc(O)cc4CC[C@H]3[C@@H]1CC[C@@H]2O,CCO,mol_347_solute_opt,mol_347_solvent_opt,50,24,273.15,1.002985182508194,Estradiol,ethanol
348.0,Nc1ccc(S(N)(=O)=O)cc1,CCO,mol_348_solute_opt,mol_348_solvent_opt,50,31,278.15,-0.9717792976218664,Sulfanilamide,ethanol
349.0,Nc1ccc(O)c(C(=O)O)c1,CCO,mol_349_solute_opt,mol_349_solvent_opt,50,38,293.2,-3.0344543831832835,Mesalazine,ethanol
350.0,C[C@@H](O[C@H]1OCCN(Cc2n[nH]c(=O)[nH]2)[C@H]1c1ccc(F)cc1)c1cc(C(F)(F)F)cc(C(F)(F)F)c1,CCO,mol_350_solute_opt,mol_350_solvent_opt,50,25,283.55,-1.539575833050235,Aprepitant,ethanol
351.0,OC[C@H]1O[C@@H](c2ccc(Cl)c(Cc3ccc(O[C@H]4CCOC4)cc3)c2)[C@H](O)[C@@H](O)[C@@H]1O,CCO,mol_351_solute_opt,mol_351_solvent_opt,50,19,278.15,-4.391534719506521,Empagliflozin,ethanol
352.0,O=C(CN1C(=O)S/C(=C\c2ccc(Cl)cc2)C1=O)N1CCN(CC(O)(Cn2cncn2)c2cc(F)ccc2F)CC1,CCO,mol_352_solute_opt,mol_352_solvent_opt,50,22,293.15,-2.559133344364675,"((5Z)-5-[(4-chlorophenyl)methylidene]-3-(2-{4-[2-(2,5-difluorophenyl)-2-hydroxy-3-(1,2,4-triazol-1-yl)propyl]piperazin-1-yl}-2-oxoethyl)-1,3-thiazolidine-2,4-dione) (L-173)",ethanol
353.0,Nc1nc(N)nc(-c2ccncc2)n1,CCO,mol_353_solute_opt,mol_353_solvent_opt,50,36,288.15,-1.8980155975903352,"2,4-diamino-6-(4-pyridyl)-1,3,5-triazine",ethanol
354.0,CC(C)(OOC(C)(C)c1ccccc1)c1ccccc1,CCO,mol_354_solute_opt,mol_354_solvent_opt,50,35,274.15,-0.5690895611960473,Dicumyl peroxide (dcp),ethanol
355.0,CC(C)C(N)=O,CCO,mol_355_solute_opt,mol_355_solvent_opt,50,35,273.15,-0.0593777318341955,Isobutyramide,ethanol
356.0,Cc1ccc(S(=O)(=O)NC(=O)NN2CC3CCCC3C2)cc1,CCO,mol_356_solute_opt,mol_356_solvent_opt,50,37,278.15,-1.8898614641332727,Gliclazide,ethanol
357.0,Cn1nc([N+](=O)[O-])c([N+](=O)[O-])c1[N+](=O)[O-],CCO,mol_357_solute_opt,mol_357_solvent_opt,50,43,283.15,-1.1857282728454035,"1-methyl-3,4,5-trinitropyrazole",ethanol
358.0,O=C(c1ccc(F)cc1)c1ccc(F)cc1,CCO,mol_358_solute_opt,mol_358_solvent_opt,50,34,293.15,-0.8380863794712913,"4,4′-difluorobenzophenone",ethanol
359.0,CCCOC(=O)c1cc(O)c(O)c(O)c1,CCO,mol_359_solute_opt,mol_359_solvent_opt,50,31,293.15,0.5801210760435734,Propyl gallate,ethanol
360.0,COc1ccc2[nH]cc(CCNC(C)=O)c2c1,CCO,mol_360_solute_opt,mol_360_solvent_opt,50,30,278.15,-0.8242735538739886,Melatonin,ethanol
361.0,O=c1cc[nH]c(=O)[nH]1,CCO,mol_361_solute_opt,mol_361_solvent_opt,50,40,283.15,-2.8750994728724493,Uracil,ethanol
362.0,Nc1cccc(C(=O)O)c1O,CCO,mol_362_solute_opt,mol_362_solvent_opt,50,39,293.2,-2.496472826968569,3-aminoSalicylic acid,ethanol
363.0,O=C1CC[C@@H](C(=O)O)N1,CCO,mol_363_solute_opt,mol_363_solvent_opt,50,42,293.95,-0.2723616397603212,L-pyroglutamic acid,ethanol
364.0,O=C1c2ccccc2C(=O)N1O,CCO,mol_364_solute_opt,mol_364_solvent_opt,50,37,278.15,-1.2708438485021931,N-hydroxyphthalimide,ethanol
365.0,CC(=O)[C@H]1CC[C@H]2[C@@H]3CCC4=CC(=O)CC[C@]4(C)[C@H]3CC[C@]12C,CCO,mol_365_solute_opt,mol_365_solvent_opt,50,25,278.15,-1.2301837992607108,Progesterone,ethanol
366.0,Oc1ccccc1/C=N/CC/N=C/c1ccccc1O,CCO,mol_366_solute_opt,mol_366_solvent_opt,50,33,278.15,-2.3438053732220507,Salen,ethanol
367.0,O=c1cc(-c2ccccc2)oc2cc(O)cc(O)c12,CCO,mol_367_solute_opt,mol_367_solvent_opt,50,33,293.2,-2.1076093014934187,Chrysin,ethanol
368.0,NS(=O)(=O)Cc1noc2ccccc12,CCO,mol_368_solute_opt,mol_368_solvent_opt,50,34,278.15,-1.6158989668489194,Zonisamide,ethanol
369.0,CC(=O)N1CCN(c2ccc(OC[C@H]3CO[C@](Cn4ccnc4)(c4ccc(Cl)cc4Cl)O3)cc2)CC1,CCO,mol_369_solute_opt,mol_369_solvent_opt,50,21,293.2,-1.393976902091573,Ketoconazole,ethanol
370.0,CO[C@H]1/C=C/O[C@@]2(C)Oc3c(C)c(O)c4c(O)c(c(/C=N/N5CCN(C)CC5)c(O)c4c3C2=O)NC(=O)/C(C)=C\C=C\[C@H](C)[C@H](O)[C@@H](C)[C@@H](O)[C@@H](C)[C@H](OC(C)=O)[C@@H]1C,CCO,mol_370_solute_opt,mol_370_solvent_opt,50,13,298.2,-2.727036261197284,Rifampicin,ethanol
371.0,CS(=O)(=O)Nc1ccc([N+](=O)[O-])cc1Oc1ccccc1,CCO,mol_371_solute_opt,mol_371_solvent_opt,50,34,278.15,-2.2978682804381947,Nimesulide,ethanol
372.0,O=c1ccn([C@@H]2O[C@H](CO)[C@@H](O)[C@H]2O)c(=O)[nH]1,CCO,mol_372_solute_opt,mol_372_solvent_opt,50,34,278.15,-2.041327482615184,Uridine,ethanol
373.0,COc1ccc(C(=O)O)cc1,CCO,mol_373_solute_opt,mol_373_solvent_opt,50,38,273.15,-1.014570766607828,4-methoxybenzoic acid,ethanol
374.0,COc1cc(/C=C/c2ccc(O)cc2)cc(OC)c1,CCO,mol_374_solute_opt,mol_374_solvent_opt,50,32,298.2,0.3366781022755007,Pterostilbene,ethanol
375.0,OC(Cn1cncn1)(Cn1cncn1)c1ccc(F)cc1F,CCO,mol_375_solute_opt,mol_375_solvent_opt,50,33,293.15,-0.7402556469098661,Fluconazole,ethanol
376.0,O=c1[nH]cc(F)c(=O)[nH]1,CCO,mol_376_solute_opt,mol_376_solvent_opt,50,43,293.15,-1.3740243596611958,5-fluorouracil,ethanol
377.0,N#CCNC(=O)c1cnccc1C(F)(F)F,CCO,mol_377_solute_opt,mol_377_solvent_opt,50,32,283.15,-1.1270959231880089,Flonicamid,ethanol
378.0,CC1Cc2ccccc2N1NC(=O)c1ccc(Cl)c(S(N)(=O)=O)c1,CCO,mol_378_solute_opt,mol_378_solvent_opt,50,36,278.15,-1.173912523158893,Indapamide,ethanol
379.0,OC(CN1CCN(CC(O)(Cn2cncn2)c2ccc(F)cc2F)CC1)(Cn1cncn1)c1ccc(F)cc1F,CCO,mol_379_solute_opt,mol_379_solvent_opt,50,27,293.15,-2.281596828069393,"3,3‘-(piperazine-1,4-diyl)bis(2-(2,4-difluorophenyl)-1-(1H-1,2,4-triazol-1-yl)propan-2-ol) (s-119)",ethanol
380.0,Nc1nc(NC2CC2)c2ncn([C@H]3C=C[C@@H](CO)C3)c2n1,CCO,mol_380_solute_opt,mol_380_solvent_opt,50,27,278.15,-0.9772538218989236,Abacavir,ethanol
381.0,NS(=O)(=O)c1ccccc1C(=O)[O-],CCO,mol_381_solute_opt,mol_381_solvent_opt,50,40,272.15,-1.519535014525895,Methyl 2-sulfamoylbenzoate,ethanol
382.0,O=C(O)C(O)c1ccccc1,CCO,mol_382_solute_opt,mol_382_solvent_opt,50,36,294.65,0.7480396814184972,"(R,S)-mandelic acid",ethanol
383.0,O=[N+]([O-])N=C1NCCN1Cc1ccc(Cl)nc1,CCO,mol_383_solute_opt,mol_383_solvent_opt,50,35,283.15,-2.2796194882009373,Imidacloprid,ethanol
384.0,COc1c(N2C[C@@H]3CCCN[C@@H]3C2)c(F)cc2c(=O)c(C(=O)O)cn(C3CC3)c12,CCO,mol_384_solute_opt,mol_384_solvent_opt,50,21,293.15,-0.769511233020616,Moxifloxacin,ethanol
385.0,COc1ccc(C=O)cc1O,CCO,mol_385_solute_opt,mol_385_solvent_opt,50,39,278.15,-0.6565187437303035,Isovanillin,ethanol
386.0,CC1(C)O[C@@H]2[C@@H](CO[C@@]3(COS(N)(=O)=O)OC(C)(C)O[C@@H]23)O1,CCO,mol_386_solute_opt,mol_386_solvent_opt,50,45,278.15,-0.5225582717785276,Topiramate,ethanol
387.0,O=[N+]([O-])c1cc[nH]n1,CCO,mol_387_solute_opt,mol_387_solvent_opt,50,43,283.15,-0.3449151151885396,3-nitro-1H-pyrazole,ethanol
388.0,CC(C)[C@H](C)[C@@H](O)[C@H](O)[C@@H](C)[C@H]1CC[C@H]2[C@@H]3COC(=O)[C@H]4C[C@H](O)[C@H](O)C[C@]4(C)[C@H]3CC[C@]12C,CCO,mol_388_solute_opt,mol_388_solvent_opt,50,18,278.15,0.3091790983709631,Brassinolide,ethanol
389.0,O=C(O)c1cc(=O)[nH]c(=O)[nH]1,CCO,mol_389_solute_opt,mol_389_solvent_opt,50,41,278.15,-3.525888115548571,Orotic acid,ethanol
390.0,COc1cc(C=O)ccc1O,CCO,mol_390_solute_opt,mol_390_solvent_opt,50,36,293.15,0.1191849368664433,Vanillin,ethanol
391.0,Cn1cc[nH]c1=S,CCO,mol_391_solute_opt,mol_391_solvent_opt,50,42,278.15,-0.3074485686073449,Methimazole,ethanol
392.0,CC(=O)Nc1ccc(CC(=O)O)cc1,CCO,mol_392_solute_opt,mol_392_solvent_opt,50,37,278.15,-0.9637284764982996,Actarit,ethanol
393.0,COc1cccc(C(=O)O)c1OC,CCO,mol_393_solute_opt,mol_393_solvent_opt,50,36,278.15,-0.6362295554325637,"2,3-dimethoxybenzoic acid",ethanol
394.0,CC(=CC(C)=Nc1c(C)cccc1C)Nc1c(C)cccc1C,CCO,mol_394_solute_opt,mol_394_solvent_opt,50,26,273.15,-0.7839931710949205,"N-{3-[(2,6-Dimethylphenyl)amino]-1-methyl-2-buten-1-ylidene}-2,6-dimethylbenzenamine",ethanol
395.0,C=C1CCN([C@H](C)[C@](O)(Cn2cncn2)c2ccc(F)cc2F)CC1,CCO,mol_395_solute_opt,mol_395_solvent_opt,50,25,288.15,0.3788939837436541,Efinaconazole,ethanol
396.0,O=[N+]([O-])c1cc([N+](=O)[O-])c(-c2nnc(-c3nnc(-c4c([N+](=O)[O-])cc([N+](=O)[O-])cc4[N+](=O)[O-])o3)o2)c([N+](=O)[O-])c1,CCO,mol_396_solute_opt,mol_396_solvent_opt,50,26,293.15,-2.7414975289511974,"5,5′-bis(2,4,6-trinitrophenyl)-2,2′-bis(1,3,4-oxadiazole)",ethanol
397.0,NCC(CC(=O)O)c1ccc(Cl)cc1,CCO,mol_397_solute_opt,mol_397_solvent_opt,50,30,293.2,-3.2541690816945747,Baclofen,ethanol
398.0,O=C(O)CCC(=O)c1ccc(-c2ccccc2)cc1,CCO,mol_398_solute_opt,mol_398_solvent_opt,50,31,278.15,-2.025700396330574,Fenbufen,ethanol
399.0,COc1c2occc2c(OC)c2c(=O)cc(C)oc12,CCO,mol_399_solute_opt,mol_399_solvent_opt,50,28,298.15,-1.3606522541373798,Khellin,ethanol
400.0,CC(=O)c1cccc(O)c1,CCO,mol_400_solute_opt,mol_400_solvent_opt,50,38,289.15,0.5335619547102477,m-hydroxyacetophenone (m-HAP),ethanol
401.0,Cc1c(-c2ccccc2)oc2c(C(=O)O)cccc2c1=O,CCO,mol_401_solute_opt,mol_401_solvent_opt,50,31,278.15,-1.7245962322188,3-methylflavone-8-carboxylic acid,ethanol