pair_id,SMILES_Solute,SMILES_Solvent,Solute_name,Solvent_name,Total_conformers,Filtered_conformers,Temperature_K,LogS,Compound_Name,Solvent
4415.0,O=C(Nc1ccccc1)c1ccccc1,CC(C)=O,mol_4415_solute_opt,mol_4415_solvent_opt,50,35,274.15,-0.8750016710140482,Benzanilide,acetone
4416.0,C#C[C@]1(O)CC[C@H]2[C@@H]3CCC4=CC(=O)CC[C@@H]4[C@H]3C(=C)C[C@@]21CC,CC(C)=O,mol_4416_solute_opt,mol_4416_solvent_opt,50,27,273.15,-0.7692396860024853,Etonogestrel,acetone
4417.0,CC1=NN(c2ccccc2)C(=O)C1,CC(C)=O,mol_4417_solute_opt,mol_4417_solvent_opt,50,31,283.15,-0.6286835448466352,Edaravone,acetone
4418.0,OCc1ccccc1O[C@@H]1OC(CO)[C@@H](O)[C@@H](O)C1O,CC(C)=O,mol_4418_solute_opt,mol_4418_solvent_opt,50,32,283.15,-3.0565016382625707,D(−)-salicin,acetone
4419.0,OC[C@H]1O[C@@H](Oc2ccc(O)cc2)[C@H](O)[C@@H](O)[C@@H]1O,CC(C)=O,mol_4419_solute_opt,mol_4419_solvent_opt,50,30,283.15,-2.080714213710717,β-Arbutin,acetone
4420.0,CC(C)OC(=O)C(C)(C)Oc1ccc(C(=O)c2ccc(Cl)cc2)cc1,CC(C)=O,mol_4420_solute_opt,mol_4420_solvent_opt,50,23,253.15,-0.5833305439036015,Fenofibrate,acetone
4421.0,NC(=O)c1ccccc1O,CC(C)=O,mol_4421_solute_opt,mol_4421_solvent_opt,50,42,253.15,-0.0427262184260538,Salicylamide,acetone
4422.0,O=C(O)c1ccccc1O,CC(C)=O,mol_4422_solute_opt,mol_4422_solvent_opt,50,40,253.15,0.1604996330648704,Salicylic acid,acetone
4423.0,CC(C)COc1ccc(B(O)O)cc1,CC(C)=O,mol_4423_solute_opt,mol_4423_solvent_opt,50,30,294.45,0.2958420614581875,para-isobutoxy-phenylboronic acid,acetone
4424.0,CC(C)COc1ccccc1B(O)O,CC(C)=O,mol_4424_solute_opt,mol_4424_solvent_opt,50,21,293.65,0.7244609726178938,ortho-isobutoxy-phenylboronic acid,acetone
4425.0,C=CC(=O)NC(C)(C)CS(=O)(=O)O,CC(C)=O,mol_4425_solute_opt,mol_4425_solvent_opt,50,42,283.15,-1.06096729181284,2-acrylamide-2-methylpropanesulfonic acid,acetone
4426.0,CCCOC(=O)c1ccc(O)cc1,CC(C)=O,mol_4426_solute_opt,mol_4426_solvent_opt,50,37,283.15,0.6065101862789675,Propylparaben,acetone
4427.0,O=C1CC[C@@H](C(=O)N2CSC[C@H]2C(=O)O)N1,CC(C)=O,mol_4427_solute_opt,mol_4427_solvent_opt,50,43,278.15,-3.3655573265531986,Pidotimod,acetone
4428.0,c1ccc2[nH]c(-c3cscn3)nc2c1,CC(C)=O,mol_4428_solute_opt,mol_4428_solvent_opt,50,33,283.15,-2.07783157283491,Thiabendazole,acetone
4429.0,CN1COCN(Cc2cnc(Cl)s2)C1=N[N+](=O)[O-],CC(C)=O,mol_4429_solute_opt,mol_4429_solvent_opt,50,28,278.15,-1.0533928051148973,Thiamethoxam,acetone
4430.0,O=Cc1cc(C=O)cc(C=O)c1,CC(C)=O,mol_4430_solute_opt,mol_4430_solvent_opt,50,42,283.15,-0.8557043647066707,"1,3,5-triformylbenzene",acetone
4431.0,O=C(O)[C@@H]1C[C@@H](O)CN1,CC(C)=O,mol_4431_solute_opt,mol_4431_solvent_opt,50,39,283.15,-1.89471824988944,L-hydroxyproline,acetone
4432.0,CC(=O)O[C@]1(C(C)=O)CC[C@H]2[C@@H]3C=C(Cl)C4=CC(=O)[C@@H]5C[C@@H]5[C@]4(C)[C@H]3CC[C@@]21C,CC(C)=O,mol_4432_solute_opt,mol_4432_solvent_opt,50,28,273.15,-2.2262574345885144,Cyproterone acetate,acetone
4433.0,OCC(O)COc1ccc(Cl)cc1,CC(C)=O,mol_4433_solute_opt,mol_4433_solvent_opt,50,40,288.15,0.0996978189983413,Chlorphenesin,acetone
4434.0,NC(=O)[C@@H]1CCCN1,CC(C)=O,mol_4434_solute_opt,mol_4434_solvent_opt,50,35,278.15,-0.0192810081774295,L-prolinamide,acetone
4435.0,CC(=O)NCC(=O)O,CC(C)=O,mol_4435_solute_opt,mol_4435_solvent_opt,50,44,288.15,-1.978917918729236,N-acetylglycine,acetone
4436.0,O=C(O)[C@@H]1CSCN1,CC(C)=O,mol_4436_solute_opt,mol_4436_solvent_opt,50,41,283.15,-2.6044990900158576,L-thioproline,acetone
4437.0,O=C(O)c1cccc(O)c1O,CC(C)=O,mol_4437_solute_opt,mol_4437_solvent_opt,50,40,278.15,0.1736554510480064,"2,3-dihydroxybenzoic acid",acetone
4438.0,O[C@H]1[C@H](O)[C@@H](O)[C@H](O)[C@@H](O)[C@H]1O,CC(C)=O,mol_4438_solute_opt,mol_4438_solvent_opt,50,36,283.15,-4.3959555223776325,Myo-inositol,acetone
4439.0,CCOc1ccccc1C(N)=O,CC(C)=O,mol_4439_solute_opt,mol_4439_solvent_opt,50,35,288.15,-0.7647809477400753,Ethenzamide,acetone
4440.0,NC1CCSC1=O,CC(C)=O,mol_4440_solute_opt,mol_4440_solvent_opt,50,42,283.15,-2.799101988071298,DL-homocysteine thiolactone hydrochloride,acetone
4441.0,CC(=O)N1CCC[C@H]1C(=O)O,CC(C)=O,mol_4441_solute_opt,mol_4441_solvent_opt,50,34,283.15,-0.6551146803245012,N-acetyl-L-proline,acetone
4442.0,COc1cc2c(cc1OC)C(=O)CC2,CC(C)=O,mol_4442_solute_opt,mol_4442_solvent_opt,50,34,283.15,-0.1517269577403597,"5,6-dimethoxy-1-indanone",acetone
4443.0,Cc1cc(Cl)cc(C(=O)O)c1N,CC(C)=O,mol_4443_solute_opt,mol_4443_solvent_opt,50,34,278.15,-0.7764080859973956,2-amino-5-chloro-3-methylbenzoic acid,acetone
4444.0,O=C(O)CNCc1ccccc1,CC(C)=O,mol_4444_solute_opt,mol_4444_solvent_opt,50,40,283.15,-3.0085605904403394,N-benzylglycine,acetone
4445.0,CSCCC(NC(C)=O)C(=O)O,CC(C)=O,mol_4445_solute_opt,mol_4445_solvent_opt,50,37,283.15,-0.7139356869562035,N-acetyl-DL-methionine,acetone
4446.0,CCOC(=O)[C@@H](C)Oc1ccc(Oc2cnc3cc(Cl)ccc3n2)cc1,CC(C)=O,mol_4446_solute_opt,mol_4446_solvent_opt,50,32,278.15,-0.7765559236270381,Quizalofop-p-ethyl,acetone
4447.0,CC(C)(C)OC(=O)N1CCC[C@H]1C(=O)O,CC(C)=O,mol_4447_solute_opt,mol_4447_solvent_opt,50,28,283.15,-0.1797878192196532,Boc-L-proline,acetone
4448.0,Nc1nc(=O)[nH]cc1F,CC(C)=O,mol_4448_solute_opt,mol_4448_solvent_opt,50,44,283.15,-3.020970717071929,5-fluorocytosine,acetone
4449.0,CNC(=O)c1cc(Oc2ccc(N)cc2)ccn1,CC(C)=O,mol_4449_solute_opt,mol_4449_solvent_opt,50,32,278.15,-0.1734262262612964,4-[2-(n-methylcarbamyl)-4-pyridyloxy]aniline,acetone
4450.0,O=C(N[C@H](C(=O)O)c1ccccc1)OCc1ccccc1,CC(C)=O,mol_4450_solute_opt,mol_4450_solvent_opt,50,31,283.15,-0.0510675976798128,N-carbobenzoxy-L-2-phenylglycine,acetone
4451.0,Nc1cccc(C(=O)O)c1,CC(C)=O,mol_4451_solute_opt,mol_4451_solvent_opt,50,36,283.15,-0.3857518788559024,M-aminobenzoic acid,acetone
4452.0,CNC(=O)c1cc(Oc2ccc(NC(=O)Nc3ccc(Cl)c(C(F)(F)F)c3)cc2)ccn1,CC(C)=O,mol_4452_solute_opt,mol_4452_solvent_opt,50,24,273.15,-1.496267820749329,Sorafenib,acetone
4453.0,O=C1CCc2cc(OCCCCc3nnnn3C3CCCCC3)ccc2N1,CC(C)=O,mol_4453_solute_opt,mol_4453_solvent_opt,50,19,273.15,-1.6278834980562815,Cilostazol,acetone
4454.0,NC(=O)c1ncn([C@@H]2O[C@H](CO)[C@@H](O)[C@H]2O)n1,CC(C)=O,mol_4454_solute_opt,mol_4454_solvent_opt,50,42,283.15,-3.2834920517459234,Ribavirin(II),acetone
4455.0,C#C[C@]1(O)C=C[C@H]2[C@@H]3CCC4=CC(=O)CC[C@@H]4[C@H]3CC[C@@]21CC,CC(C)=O,mol_4455_solute_opt,mol_4455_solvent_opt,50,33,283.15,-1.2795614620796931,Gestodene,acetone
4456.0,COc1cc(C=O)cc(OC)c1OC,CC(C)=O,mol_4456_solute_opt,mol_4456_solvent_opt,50,30,278.15,0.1730595884416375,"3,4,5-trimethoxybenzaldehyde",acetone
4457.0,COC(=O)CC[C@H](N)C(=O)O,CC(C)=O,mol_4457_solute_opt,mol_4457_solvent_opt,50,39,283.15,-3.14524605625644,L-glutamic acid 5-methyl ester,acetone
4458.0,O=C(O)CNC(=O)OCc1ccccc1,CC(C)=O,mol_4458_solute_opt,mol_4458_solvent_opt,50,33,283.15,-0.042251524094029,N-carbobenzyloxyglycine,acetone
4459.0,CC(C)(C)OC(=O)N[C@@H](CC(N)=O)C(=O)O,CC(C)=O,mol_4459_solute_opt,mol_4459_solvent_opt,50,34,283.15,-1.906667595144785,Boc-L-asparagine,acetone
4460.0,CCOc1ccc(C=O)cc1O,CC(C)=O,mol_4460_solute_opt,mol_4460_solvent_opt,50,38,283.15,-0.2125996277526698,Iso-ethylvanillin,acetone
4461.0,NC(=O)C[C@H](NC(=O)OCc1ccccc1)C(=O)O,CC(C)=O,mol_4461_solute_opt,mol_4461_solvent_opt,50,34,283.15,-1.9864374242111844,N-benzyloxycarbonyl-L-asparagine,acetone
4462.0,CCc1nc(N)nc(N)c1-c1ccc(Cl)cc1,CC(C)=O,mol_4462_solute_opt,mol_4462_solvent_opt,50,29,278.15,-1.814232581439918,Pyrimethamine,acetone
4463.0,C=CC(=O)NC(C)(C)CC(C)=O,CC(C)=O,mol_4463_solute_opt,mol_4463_solvent_opt,50,33,272.05,0.5637082594488708,Diacetone acrylamide,acetone
4464.0,CC(=O)OC(OC(C)=O)c1ccc([N+](=O)[O-])o1,CC(C)=O,mol_4464_solute_opt,mol_4464_solvent_opt,50,36,278.15,0.1188251678520275,2-(diacetoxymethyl)-5-nitrofuran,acetone
4465.0,NC(N)=NCCC[C@H](NC(=O)OCc1ccccc1)C(=O)O,CC(C)=O,mol_4465_solute_opt,mol_4465_solvent_opt,50,30,283.15,-3.4625943540263813,Nα-carbobenzyloxy-L-arginine,acetone
4466.0,CC(C)OC(=O)[C@H](C)N[P@](=O)(OC[C@H]1O[C@@H](n2ccc(=O)[nH]c2=O)[C@](C)(F)[C@@H]1O)Oc1ccccc1,CC(C)=O,mol_4466_solute_opt,mol_4466_solvent_opt,50,29,278.15,-0.4050024848637804,Sofosbuvir,acetone
4467.0,O=C([O-])c1nc[nH]n1,CC(C)=O,mol_4467_solute_opt,mol_4467_solvent_opt,50,40,278.15,-1.6702986542366025,"Methyl 1,2,4-triazole-3-carboxylate",acetone
4468.0,O=P1(C(Nc2ccccc2)c2ccccc2)OCC2(CO1)COP(=O)(C(Nc1ccccc1)c1ccccc1)OC2,CC(C)=O,mol_4468_solute_opt,mol_4468_solvent_opt,50,23,283.35,-2.9008934791352416,"3,9-bis(phenyl(phenylamino)methyl)-2,4,8,10-tetraoxa-3,9-diphosphaspiro[5.5] undecane 3,9-dioxide",acetone
4469.0,O=c1cc(-c2ccccc2)oc2c1ccc1ccccc12,CC(C)=O,mol_4469_solute_opt,mol_4469_solvent_opt,50,35,273.15,-1.531984828197936,α-Naphthoflavone,acetone
4470.0,O=C(N[C@@H](Cc1c[nH]c2ccccc12)C(=O)O)OCc1ccccc1,CC(C)=O,mol_4470_solute_opt,mol_4470_solvent_opt,50,28,283.15,0.5485998266966946,N-benzyloxycarbonyl-L-tryptophan,acetone
4471.0,OCCOc1ccc2ccccc2c1-c1c(OCCO)ccc2ccccc12,CC(C)=O,mol_4471_solute_opt,mol_4471_solvent_opt,50,23,283.15,-1.0384911034388866,"2,2’-bis(2-hydroxyethoxy)-1,1′-binaphthalene",acetone
4472.0,NCC(CC(=O)O)c1ccc(Cl)cc1,CC(C)=O,mol_4472_solute_opt,mol_4472_solvent_opt,50,27,273.15,-2.494868683699455,Baclofen,acetone
4473.0,CC(C)(C)OC(=O)N[C@@H](CCC(N)=O)C(=O)O,CC(C)=O,mol_4473_solute_opt,mol_4473_solvent_opt,50,31,283.15,-0.0658917033362056,Boc-L-glutamine,acetone
4474.0,O=[N+]([O-])c1cc([N+](=O)[O-])c(Cl)cc1Cl,CC(C)=O,mol_4474_solute_opt,mol_4474_solvent_opt,50,45,288.15,0.4463010313373466,"1,5-dichloro-2,4-dinitrobenzene",acetone
4475.0,CC(C)(C)NCC(O)c1ccc(O)c(CO)c1,CC(C)=O,mol_4475_solute_opt,mol_4475_solvent_opt,50,26,283.15,-2.6954335077543647,Salbutamol,acetone
4476.0,CS(=O)(=O)Nc1ccc([N+](=O)[O-])cc1Oc1ccccc1,CC(C)=O,mol_4476_solute_opt,mol_4476_solvent_opt,50,37,273.15,-0.4109092714460882,Nimesulide,acetone
4477.0,CCCc1nc(C(C)(C)O)c(C(=O)OCC)n1Cc1ccc(-c2ccccc2-c2nnnn2C(c2ccccc2)(c2ccccc2)c2ccccc2)cc1,CC(C)=O,mol_4477_solute_opt,mol_4477_solvent_opt,50,22,278.15,-2.066520163199786,N-trityl olmesartan ethyl ester,acetone
4478.0,CC1(C)[C@@H](O)CC[C@]2(C)[C@H]3C(=O)C=C4[C@@H]5C[C@@](C)(C(=O)O)CC[C@]5(C)CC[C@@]4(C)[C@]3(C)CC[C@@H]12,CC(C)=O,mol_4478_solute_opt,mol_4478_solvent_opt,50,22,278.15,-1.3486241234988212,18β-glycyrrhetinic acid,acetone
4479.0,N#Cc1ccncc1,CC(C)=O,mol_4479_solute_opt,mol_4479_solvent_opt,50,47,278.15,0.4277369759999242,4-cyanopyridine,acetone
4480.0,O=C(Nc1ccccc1)Nc1ccnc(Cl)c1,CC(C)=O,mol_4480_solute_opt,mol_4480_solvent_opt,50,29,278.15,-0.3668815439121637,Forchlorfenuron,acetone
4481.0,Nc1cccc2ccncc12,CC(C)=O,mol_4481_solute_opt,mol_4481_solvent_opt,50,41,278.15,-1.3654889954472953,8-isoquinolinamine,acetone
4482.0,O=c1cnc(Br)c[nH]1,CC(C)=O,mol_4482_solute_opt,mol_4482_solvent_opt,50,45,278.15,-1.126657244294773,2-bromo-5-hydroxypyrazine,acetone
4483.0,CC1(C)CC[C@]2(C(=O)O)CC[C@]3(C)C(=CC[C@@H]4[C@@]5(C)CC[C@H](O)C(C)(C)[C@@H]5CC[C@]43C)[C@@H]2C1,CC(C)=O,mol_4483_solute_opt,mol_4483_solvent_opt,50,22,278.15,-2.189744988742332,Oleanolic acid,acetone
4484.0,C[C@H]1[C@H](C)CC[C@]2(C(=O)O)CC[C@]3(C)C(=CC[C@@H]4[C@@]5(C)CC[C@H](O)C(C)(C)[C@@H]5CC[C@]43C)[C@H]12,CC(C)=O,mol_4484_solute_opt,mol_4484_solvent_opt,50,27,278.15,-2.272095167813416,Ursolic acid,acetone
4485.0,Nc1cnc(Br)cn1,CC(C)=O,mol_4485_solute_opt,mol_4485_solvent_opt,50,44,278.15,-1.0188956018191389,2-amino-5-bromopyrazine,acetone
4486.0,Cc1cc(C#N)c(Nc2ccccc2[N+](=O)[O-])s1,CC(C)=O,mol_4486_solute_opt,mol_4486_solvent_opt,50,36,292.15,-0.4363602478560328,5-methyl-2-[(2-nitrophenyl)amino]-3-thiophenecarbonitrile,acetone
4487.0,Nc1ccc(Br)nn1,CC(C)=O,mol_4487_solute_opt,mol_4487_solvent_opt,50,45,278.15,-0.976506356342775,3-amino-6-bromopyridazine,acetone
4488.0,O=C(Nc1ccncc1)c1cc(C(=O)Nc2ccncc2)cc(C(=O)Nc2ccncc2)c1,CC(C)=O,mol_4488_solute_opt,mol_4488_solvent_opt,50,24,283.15,-4.036372653581139,"N1,N3,N5-tris(pyridin-4-yl)benzene-1,3,5-tricarboxamide (TPBTC)",acetone
4489.0,Cc1ccc2cc(Br)ccc2n1,CC(C)=O,mol_4489_solute_opt,mol_4489_solvent_opt,50,40,278.15,-1.0225548110333424,6-bromo-2-methylquinoline,acetone
4490.0,NC(=O)c1ccncc1,CC(C)=O,mol_4490_solute_opt,mol_4490_solvent_opt,50,39,278.15,-2.7776991192124694,Isonicotinamide,acetone
4491.0,O=S1(=O)OC(c2ccc(O)cc2)(c2ccc(O)cc2)c2ccccc21,CC(C)=O,mol_4491_solute_opt,mol_4491_solvent_opt,50,37,278.15,-2.334043646538232,Phenol red,acetone
4492.0,O=C(N[C@@H](CO)C(=O)O)OCc1ccccc1,CC(C)=O,mol_4492_solute_opt,mol_4492_solvent_opt,50,34,283.15,0.0218761979801089,N-benzyloxycarbonyl-L-serine,acetone
4493.0,Oc1ccc(C2(c3ccc(O)cc3)CCCCC2)cc1,CC(C)=O,mol_4493_solute_opt,mol_4493_solvent_opt,50,34,288.15,-0.0563506657354602,Bisphenol Z (BPZ),acetone
4494.0,CCCN1CCCC[C@H]1C(=O)Nc1c(C)cccc1C,CC(C)=O,mol_4494_solute_opt,mol_4494_solvent_opt,50,28,278.15,-1.0387056958768182,Ropivacaine,acetone
4495.0,CC(C)C[C@H](N)C(=O)O,CC(C)=O,mol_4495_solute_opt,mol_4495_solvent_opt,50,38,283.15,-3.36014896862145,L-leucine,acetone
4496.0,CC(C)[C@H](N)C(=O)O,CC(C)=O,mol_4496_solute_opt,mol_4496_solvent_opt,50,35,283.15,-3.3684746179904264,L-valine,acetone
4497.0,c1ccc2c(c1)Cc1ccccc1-2,CC(C)=O,mol_4497_solute_opt,mol_4497_solvent_opt,50,29,278.15,-0.2936265820025715,Fluorene,acetone
4498.0,O=C(O)c1cccc(O)c1,CC(C)=O,mol_4498_solute_opt,mol_4498_solvent_opt,50,38,278.15,0.1936291983243208,m-Hydroxybenzoic acid,acetone
4499.0,O=C1C(CCS(=O)c2ccccc2)C(=O)N(c2ccccc2)N1c1ccccc1,CC(C)=O,mol_4499_solute_opt,mol_4499_solvent_opt,50,30,283.15,-0.7139356869562035,Sulfinpyrazone,acetone
4500.0,O=C1CCCC(=O)C1,CC(C)=O,mol_4500_solute_opt,mol_4500_solvent_opt,50,38,288.15,-0.1525953564285414,"1,3-cyclohexanedione",acetone
4501.0,N[C@@H](Cc1ccccc1)C(=O)O,CC(C)=O,mol_4501_solute_opt,mol_4501_solvent_opt,50,37,283.15,-2.951866117705199,L-phenylalanine,acetone
4502.0,COc1ccc(C(=O)O)cc1,CC(C)=O,mol_4502_solute_opt,mol_4502_solvent_opt,50,34,283.15,-0.7429396139201888,4-methoxybenzoic acid,acetone
4503.0,Nc1ncnc2c1ncn2CCOCP(=O)(O)O,CC(C)=O,mol_4503_solute_opt,mol_4503_solvent_opt,50,37,278.15,-2.844050524384412,Adefovir,acetone
4504.0,NC(=O)CS(=O)C(c1ccccc1)c1ccccc1,CC(C)=O,mol_4504_solute_opt,mol_4504_solvent_opt,50,32,278.2,-1.7063284437985398,Modafinil,acetone
4505.0,O=c1ccc2cc(O)c(O)cc2o1,CC(C)=O,mol_4505_solute_opt,mol_4505_solvent_opt,50,34,273.15,0.0891665549283179,Esculetin,acetone
4506.0,CC(C)(N)C(=O)O,CC(C)=O,mol_4506_solute_opt,mol_4506_solvent_opt,50,40,283.15,-3.081672466328002,α-Aminoisobutyric Acid,acetone
4507.0,CC(=O)N[C@H](C(=O)O)C(C)C,CC(C)=O,mol_4507_solute_opt,mol_4507_solvent_opt,50,34,283.15,-0.845980488776807,N-acetyl-L-valine,acetone
4508.0,O=C1CC[C@@H](C(=O)O)N1,CC(C)=O,mol_4508_solute_opt,mol_4508_solvent_opt,50,37,283.15,-1.1388204101492057,L-pyroglutamic acid,acetone
4509.0,COc1ccc(/C=C/C(=O)O)cc1OC,CC(C)=O,mol_4509_solute_opt,mol_4509_solvent_opt,50,28,283.15,-0.92256911085445,"3,4-dimethoxycinnamic acid",acetone
4510.0,CCOc1ccc(OCC)cc1,CC(C)=O,mol_4510_solute_opt,mol_4510_solvent_opt,50,33,278.15,-0.107883024687505,"1,4-diethoxybenzene",acetone
4511.0,COC(=O)c1cc(OC)c2c(c1-c1c(C(=O)OC)cc(OC)c3c1OCO3)OCO2,CC(C)=O,mol_4511_solute_opt,mol_4511_solvent_opt,50,23,293.15,-1.204868887326716,Bifendate,acetone
4512.0,OCC1(O)OC[C@@H](O)[C@@H](O)[C@H]1O,CC(C)=O,mol_4512_solute_opt,mol_4512_solvent_opt,50,36,283.15,-2.077113888763486,D-psicose,acetone
4513.0,CC(=O)O[C@H]1NC(=O)[C@@H]1[C@@H](C)O[Si](C)(C)C(C)(C)C,CC(C)=O,mol_4513_solute_opt,mol_4513_solvent_opt,50,29,293.15,0.369677307938487,4-acetoxyazetidin-2-one,acetone
4514.0,Oc1ccccc1C=N[C@@H]1CCCC[C@H]1N=Cc1ccccc1O,CC(C)=O,mol_4514_solute_opt,mol_4514_solvent_opt,50,33,273.15,-0.3708375112087006,"Bis(salicylidene)-trans-1,2-cyclo-hexanediamine",acetone
4515.0,CC(C)[C@H](NC(=O)OCC1c2ccccc2-c2ccccc21)C(=O)O,CC(C)=O,mol_4515_solute_opt,mol_4515_solvent_opt,50,29,283.15,-0.1872473633230441,Fmoc-L-valine,acetone
4516.0,O=[N+]([O-])c1ccc(Oc2ccc([N+](=O)[O-])cc2)cc1,CC(C)=O,mol_4516_solute_opt,mol_4516_solvent_opt,50,36,283.15,-0.6633033618405368,"4,4′-dinitrodiphenyl ether",acetone
4517.0,CCCCN(CCCC)c1ccc(C(=O)c2ccccc2C(=O)O)c(O)c1,CC(C)=O,mol_4517_solute_opt,mol_4517_solvent_opt,50,22,283.15,-0.6766072547401885,2-[4-(dibutylamino)-2-hydroxybenzoyl] benzoic acid,acetone
4518.0,c1ccc2[nH]cnc2c1,CC(C)=O,mol_4518_solute_opt,mol_4518_solvent_opt,50,34,283.15,-0.5678984394907105,Benzimidazole,acetone
4519.0,CC[C@H](C)[C@H](N)C(=O)O,CC(C)=O,mol_4519_solute_opt,mol_4519_solvent_opt,50,31,283.15,-3.7770591498508472,L-isoleucine,acetone
4520.0,Cc1cc(Cl)ccc1OCC(=O)O,CC(C)=O,mol_4520_solute_opt,mol_4520_solvent_opt,50,34,278.15,0.4171302933968619,2-methyl-4-chlorophenoxyacetic acid,acetone
4521.0,Cc1cccc2sc(NN)nc12,CC(C)=O,mol_4521_solute_opt,mol_4521_solvent_opt,50,40,273.15,-0.8681636543683424,2-hydrazino-4-methylbenzothiazole,acetone
4522.0,CCNc1nc(Cl)nc(NC(C)C)n1,CC(C)=O,mol_4522_solute_opt,mol_4522_solvent_opt,50,27,283.15,-1.0113262665322584,Atrazine,acetone
4523.0,Cc1nc2n(c(=O)c1CCN1CCC(c3noc4cc(F)ccc34)CC1)CCCC2O,CC(C)=O,mol_4523_solute_opt,mol_4523_solvent_opt,50,32,288.15,-3.055281159445854,Paliperidone,acetone
4524.0,O=C(O)c1ccc(Cl)cc1Cl,CC(C)=O,mol_4524_solute_opt,mol_4524_solvent_opt,50,42,273.15,-0.329646760954659,"2,4-dichlorobenzoic acid",acetone
4525.0,Nc1ncccn1,CC(C)=O,mol_4525_solute_opt,mol_4525_solvent_opt,50,40,272.65,-0.4980550415304997,2-aminopyrimidine,acetone
4526.0,N#Cc1c(Cl)c(Cl)c(Cl)c(Cl)c1C#N,CC(C)=O,mol_4526_solute_opt,mol_4526_solvent_opt,50,38,288.15,-1.2940436415152363,Chlorothalonil,acetone
4527.0,O=P(NCc1ccccc1)(Oc1ccccc1)Oc1ccccc1,CC(C)=O,mol_4527_solute_opt,mol_4527_solvent_opt,50,28,293.15,-0.1964820094296445,"Phosphoramidic acid, N-(phenylmethyl)-, diphenyl ester (PANDE)",acetone
4528.0,O=[N+]([O-])N1CN2CN(C1)CN([N+](=O)[O-])C2,CC(C)=O,mol_4528_solute_opt,mol_4528_solvent_opt,50,35,288.15,-6.013900344022024,"3,7-dinitro-1,3,5,7-tetraazabicyclo [3.3.1] nonane",acetone
4529.0,COc1cc2oc(=O)cc(-c3ccccc3)c2cc1O,CC(C)=O,mol_4529_solute_opt,mol_4529_solvent_opt,50,31,283.2,-1.4986127961116762,Dalbergin,acetone
4530.0,O=c1cc(-c2ccccc2)c2cc(O)c(O)cc2o1,CC(C)=O,mol_4530_solute_opt,mol_4530_solvent_opt,50,31,283.2,-1.516897608551525,Nordalbergin,acetone
4531.0,C=C1C[C@]23C[C@H]1CC[C@H]2[C@@]12CC[C@H](O)[C@@](C)(C(=O)O1)[C@H]2[C@@H]3C(=O)O,CC(C)=O,mol_4531_solute_opt,mol_4531_solvent_opt,50,29,278.15,-0.109188336672829,Gibberellin A4,acetone
4532.0,Clc1cc(Cl)cc(Cl)c1,CC(C)=O,mol_4532_solute_opt,mol_4532_solvent_opt,50,46,273.15,-0.2129690001156582,"1,3,5-trichlorobenzene",acetone
4533.0,COc1cc(C(=O)O)ccc1O,CC(C)=O,mol_4533_solute_opt,mol_4533_solvent_opt,50,35,293.15,-0.072221123848107,Vanillic acid,acetone
4535.0,CS(=O)(=O)c1ccc(C=O)cc1,CC(C)=O,mol_4535_solute_opt,mol_4535_solvent_opt,50,30,283.15,-0.9544770467667278,4-(methylsulfonyl)benzaldehyde,acetone
4536.0,CCOc1ncc(C)c2c1[C@H](c1ccc(C#N)cc1OC)C(C(N)=O)=C(C)N2,CC(C)=O,mol_4536_solute_opt,mol_4536_solvent_opt,50,26,273.15,-1.2767241931963973,Finerenone,acetone
4537.0,O=C1NC(=O)c2cc([N+](=O)[O-])ccc21,CC(C)=O,mol_4537_solute_opt,mol_4537_solvent_opt,50,39,273.15,-0.60220136931348,4-nitrophthalimide,acetone
4538.0,O=C1NC23NC(=O)NC2(N1)C(=O)NC3=O,CC(C)=O,mol_4538_solute_opt,mol_4538_solvent_opt,50,43,273.15,-3.107005554216669,"3,7,9,11-Tetraoxo-2,4,6,8,10-pentaaza[3.3.3] Propellane (TOPAP)",acetone
4539.0,O=C(O)/C=C/c1ccc(O)cc1,CC(C)=O,mol_4539_solute_opt,mol_4539_solvent_opt,50,40,293.15,-0.2661853879730966,p-coumaric acid,acetone
4540.0,COC(=O)c1c(C)cc(O)c(C)c1O,CC(C)=O,mol_4540_solute_opt,mol_4540_solvent_opt,50,36,283.15,0.4299306180194005,Veramoss,acetone
4541.0,CCOC(=O)N1CCC(=C2c3ccc(Cl)cc3CCc3cccnc32)CC1,CC(C)=O,mol_4541_solute_opt,mol_4541_solvent_opt,50,32,283.15,-0.7504951912204002,Loratadine,acetone
4542.0,O=C(O)Cc1cccc2ccccc12,CC(C)=O,mol_4542_solute_opt,mol_4542_solvent_opt,50,39,278.25,0.4294632665257473,1-naphthaleneacetic acid,acetone
4543.0,CCCCC1C(=O)N(c2ccccc2)N(c2ccccc2)C1=O,CC(C)=O,mol_4543_solute_opt,mol_4543_solvent_opt,50,30,283.15,0.0202887318360277,Phenylbutazone,acetone
4544.0,CC(=O)Oc1ccc(C2CC(=O)c3c(OC(C)=O)cc(OC(C)=O)cc3O2)cc1,CC(C)=O,mol_4544_solute_opt,mol_4544_solvent_opt,50,25,278.2,0.0574982722701984,"4′,5,7-triacetoxyflavanone",acetone
4545.0,CCOc1cc(C=O)ccc1O,CC(C)=O,mol_4545_solute_opt,mol_4545_solvent_opt,50,38,273.15,0.5415565728629871,Ethyl vanillin,acetone