pair_id,SMILES_Solute,SMILES_Solvent,Solute_name,Solvent_name,Total_conformers,Filtered_conformers,Temperature_K,LogS,Compound_Name,Solvent
939.0,C[C@@H]1O[C@@H](OC[C@H]2O[C@@H](Oc3cc(O)c4c(=O)cc(-c5ccccc5O)oc4c3)[C@H](O)[C@@H](O)[C@@H]2O)[C@H](O)[C@H](O)[C@H]1O,CO,mol_939_solute_opt,mol_939_solvent_opt,50,14,288.2,-2.4748977674804817,Apigenin 7-O-rhamnosylglucoside,methanol
940.0,O=c1cc(-c2ccc(O)cc2)oc2cc(O)cc(O)c12,CO,mol_940_solute_opt,mol_940_solvent_opt,50,27,288.2,-2.533035050351212,Apigenin,methanol
941.0,C[C@@H]1CC[C@@]2(OC1)O[C@H]1C[C@H]3[C@@H]4CC=C5C[C@@H](O)CC[C@]5(C)[C@H]4CC[C@]3(C)[C@H]1[C@@H]2C,CO,mol_941_solute_opt,mol_941_solvent_opt,50,16,291.15,-2.3355194666323937,Diosgenin,methanol
942.0,Brc1sc(Br)c(Br)c1Br,CO,mol_942_solute_opt,mol_942_solvent_opt,50,37,281.25,-2.004295683912852,"2,3,4,5-tetrabromothiophene",methanol
943.0,CN1c2ccccc2C(=O)N2CCc3c([nH]c4ccccc34)[C@H]21,CO,mol_943_solute_opt,mol_943_solvent_opt,50,19,283.2,-3.0558360975055634,Evodiamine,methanol
944.0,CC(=O)S[C@@H]1CC2=CC(=O)CC[C@]2(C)[C@H]2CC[C@@]3(C)[C@@H](CC[C@@]34CCC(=O)O4)[C@H]12,CO,mol_944_solute_opt,mol_944_solvent_opt,50,22,278.85,-2.294297814056909,Spironolactone,methanol
945.0,c1ccc2c(c1)sc1ccccc12,CO,mol_945_solute_opt,mol_945_solvent_opt,50,34,278.15,-0.940777404279144,Dibenzothiophene,methanol
946.0,COc1cc(Cl)c(OC)cc1N,CO,mol_946_solute_opt,mol_946_solvent_opt,50,27,278.05,-1.1476655431142238,"4-chloro-2,5-dimethoxyaniline",methanol
947.0,COc1cc([N+](=O)[O-])c(OC)cc1Cl,CO,mol_947_solute_opt,mol_947_solvent_opt,50,32,279.35,-1.9483680777143608,"4-chloro-2,5-dimethoxynitrobenzene",methanol
948.0,C/C=C/C=C/C(=O)O,CO,mol_948_solute_opt,mol_948_solvent_opt,50,32,285.15,-0.0733610145835702,Sorbic acid,methanol
949.0,O=c1c(-c2ccc(O)cc2)coc2cc(O[C@@H]3O[C@H](CO)[C@@H](O)[C@H](O)[C@H]3O)ccc12,CO,mol_949_solute_opt,mol_949_solvent_opt,50,23,283.2,-2.6588613997828525,Daidzin,methanol
950.0,O=c1c(-c2ccc(O)cc2)coc2cc(O[C@@H]3O[C@H](CO)[C@@H](O)[C@H](O)[C@H]3O)cc(O)c12,CO,mol_950_solute_opt,mol_950_solvent_opt,50,21,283.2,-2.9034023288155173,Genistin,methanol
951.0,O=C(O)CCCCCCCCCCCC(=O)O,CO,mol_951_solute_opt,mol_951_solvent_opt,50,14,283.15,-1.1372701860014327,Tridecanedioic acid,methanol
952.0,O=[N+]([O-])c1nonc1-c1no[n+]([O-])c1-c1nonc1[N+](=O)[O-],CO,mol_952_solute_opt,mol_952_solvent_opt,50,21,298.15,-0.3800843389478003,"3,4-bis(3-nitrofurazan-4-yl)furoxan",methanol
953.0,O=[N+]([O-])c1cccc2cccc([N+](=O)[O-])c12,CO,mol_953_solute_opt,mol_953_solvent_opt,50,33,273.15,-2.129826033334181,"1,8-dinitronaphthalene",methanol
954.0,CC1=C(O)C(=O)C(C)O1,CO,mol_954_solute_opt,mol_954_solvent_opt,50,32,283.15,0.6195719193592117,"4-hydroxy-2,5-dimethyl-3(2H)-furanone (DMHF)",methanol
955.0,Cc1ccc(C(C)C)c(O)c1,CO,mol_955_solute_opt,mol_955_solvent_opt,50,24,279.15,1.292828930053297,Thymol,methanol
956.0,O=C1NC(=O)c2ccccc21,CO,mol_956_solute_opt,mol_956_solvent_opt,50,37,283.15,-1.4912785024826591,Phthalimide,methanol
957.0,NC(N)=S,CO,mol_957_solute_opt,mol_957_solvent_opt,50,39,283.15,0.0405331082472079,Thiourea,methanol
958.0,COc1ccc2nc(S(=O)Cc3ncc(C)c(OC)c3C)[nH]c2c1,CO,mol_958_solute_opt,mol_958_solvent_opt,50,22,278.15,-1.2854693739975105,Omeprazole,methanol
959.0,CCOC(=O)Cc1c(C(=O)OCC)sc(N)c1C#N,CO,mol_959_solute_opt,mol_959_solvent_opt,50,29,273.15,-0.9113060000466584,Ethyl 5-amino-4-cyano-3-(2-ethoxy-2-oxoethyl)-2-thiophenecarboxylate,methanol
960.0,O=C1c2cccc(Cl)c2C(=O)N1c1ccccc1,CO,mol_960_solute_opt,mol_960_solvent_opt,50,27,288.15,-2.4364142128273945,3-chloro-N-phenylphthalimide,methanol
961.0,Nc1ccc(N2CCOCC2=O)cc1,CO,mol_961_solute_opt,mol_961_solvent_opt,50,24,278.15,-1.3635333668666645,4-(4-aminophenyl)-3-morpholinone,methanol
962.0,CC(=O)O[C@H]1CC[C@@]2(C)C(=CC[C@@H]3[C@@H]2CC[C@]2(C)C(=O)CC[C@@H]32)C1,CO,mol_962_solute_opt,mol_962_solvent_opt,50,19,273.15,-1.5237666744349143,Dehydroepiandrosterone acetate,methanol
963.0,O=C1c2cccc(O)c2C(=O)c2c(O)cc(CO)cc21,CO,mol_963_solute_opt,mol_963_solvent_opt,50,28,278.15,-4.379439089613936,Aloe-emodin,methanol
964.0,CC1(C)O[C@H]2CC(=O)OC[C@]23[C@H]2CC[C@@]4(C)[C@H](c5ccoc5)OC(=O)[C@H]5O[C@]54[C@]2(C)C(=O)C[C@@H]13,CO,mol_964_solute_opt,mol_964_solvent_opt,50,13,283.2,-2.7523300415908976,Limonin,methanol
965.0,C#CC(C)(C)NC(=O)c1cc(Cl)cc(Cl)c1,CO,mol_965_solute_opt,mol_965_solvent_opt,50,24,278.15,-0.781382080764024,Pronamide,methanol
966.0,O=[N+]([O-])c1ccc(O)c2ncccc12,CO,mol_966_solute_opt,mol_966_solvent_opt,50,31,278.15,-1.9534094830367608,5-nitro-8-hydroxyquinoline,methanol
967.0,Cc1cccc([N+](=O)[O-])c1N,CO,mol_967_solute_opt,mol_967_solvent_opt,50,33,278.15,-0.7278844497839633,2-methyl-6-nitroaniline,methanol
968.0,O=S(=O)(c1ccc(O)cc1)c1ccccc1O,CO,mol_968_solute_opt,mol_968_solvent_opt,50,12,278.15,0.1807450781124267,"2,4′-dihydroxydiphenyl sulfone",methanol
969.0,Nc1ccc([N+](=O)[O-])cc1[N+](=O)[O-],CO,mol_969_solute_opt,mol_969_solvent_opt,50,37,278.15,-1.498546365933366,"2,4-dinitroaniline",methanol
970.0,NCCCC(=O)O,CO,mol_970_solute_opt,mol_970_solvent_opt,50,25,283.15,-1.3628769663679394,4-aminobutyric acid,methanol
971.0,Cc1cc(C(=O)O)ccc1[N+](=O)[O-],CO,mol_971_solute_opt,mol_971_solvent_opt,50,36,283.15,-0.8176048642506494,3-methyl-4-nitrobenzoic acid,methanol
972.0,CO[C@@]1(NC(=O)Cc2cccs2)C(=O)N2C(C(=O)O)=C(COC(N)=O)CS[C@@H]21,CO,mol_972_solute_opt,mol_972_solvent_opt,50,21,278.15,-0.8456095947366145,Cefoxitin acid,methanol
973.0,CC1=NN(c2ccc(C)cc2)C(=O)C1,CO,mol_973_solute_opt,mol_973_solvent_opt,50,27,278.15,-0.4113138954075517,"2,4-dihydro-5-methyl-2-(4-methylphenyl)-3H-pyrazol-3-one",methanol
974.0,O=C(O)c1ccccc1Nc1ccccc1,CO,mol_974_solute_opt,mol_974_solvent_opt,50,21,283.15,-1.0814242858366054,N-phenylanthranilic acid,methanol
975.0,Cc1ccc(S(C)(=O)=O)cc1,CO,mol_975_solute_opt,mol_975_solvent_opt,50,27,278.15,-0.5504308432245026,1-methyl-4-(methylsulfonyl)benzene,methanol
976.0,O=[N+]([O-])c1cn[nH]c1,CO,mol_976_solute_opt,mol_976_solvent_opt,50,39,278.15,0.1126718855187364,4-nitropyrazole,methanol
977.0,CCCCc1nc(Cl)c(C(=O)OCOC(=O)OC(C)C)n1Cc1ccc(-c2ccccc2-c2nn[nH]n2)cc1,CO,mol_977_solute_opt,mol_977_solvent_opt,50,15,278.15,-1.554004130022229,Allisartan isoproxil,methanol
978.0,NC(=O)N1c2ccccc2CC(=O)c2ccccc21,CO,mol_978_solute_opt,mol_978_solvent_opt,50,23,288.15,-1.8772024838506447,Oxcarbazepine,methanol
979.0,O=Cc1ccc([N+](=O)[O-])cc1,CO,mol_979_solute_opt,mol_979_solvent_opt,50,35,273.15,-0.1659045376964109,4-nitrobenzaldehyde,methanol
980.0,C[C@@H]1O[C@@H](OC[C@H]2O[C@@H](Oc3c(-c4ccc(OCCO)c(OCCO)c4)oc4cc(OCCO)cc(O)c4c3=O)[C@H](O)[C@@H](O)[C@@H]2O)[C@H](O)[C@H](O)[C@H]1O,CO,mol_980_solute_opt,mol_980_solvent_opt,50,10,288.15,-2.215703216526438,Troxerutin,methanol
981.0,Nc1nnc[nH]1,CO,mol_981_solute_opt,mol_981_solvent_opt,50,37,283.15,-0.1036498308836086,"3-amino-1,2,4-triazole",methanol
982.0,Cn1cnc([N+](=O)[O-])c1Cl,CO,mol_982_solute_opt,mol_982_solvent_opt,50,36,283.15,-1.1542086212086289,5-chloro-1-methyl-4-nitroimidazole,methanol
983.0,Nc1ccccc1N,CO,mol_983_solute_opt,mol_983_solvent_opt,50,34,283.15,0.1335841912781802,O-phenylenediamine,methanol
984.0,COc1cc(Cl)nc(N)n1,CO,mol_984_solute_opt,mol_984_solvent_opt,50,36,273.15,-1.4966926422242834,2-amino-4-chloro-6-methoxypyrimidine,methanol
985.0,Cc1cc([N+](=O)[O-])ccc1N,CO,mol_985_solute_opt,mol_985_solvent_opt,50,39,278.15,-0.6750061884996487,2-methyl-4-nitroaniline,methanol
986.0,O=Cc1cccc([N+](=O)[O-])c1,CO,mol_986_solute_opt,mol_986_solvent_opt,50,39,273.15,0.3920702207622897,3-nitrobenzaldehyde,methanol
987.0,CC(=O)[C@@]1(O)CC[C@H]2[C@@H]3CCC4=CC(=O)CC[C@]4(C)[C@H]3[C@@H](O)C[C@@]21C,CO,mol_987_solute_opt,mol_987_solvent_opt,50,22,278.15,-0.4519847882479946,"11α,17α-dihydroxy-4-pregnene-3,20-dione",methanol
988.0,Nc1ccc([N+](=O)[O-])cc1N,CO,mol_988_solute_opt,mol_988_solvent_opt,50,37,283.15,-1.5570153683368817,"4-nitro-1,2-phenylenediamine",methanol
989.0,Clc1ccc2c(c1)Nc1ccccc1S2,CO,mol_989_solute_opt,mol_989_solvent_opt,50,29,283.15,-0.9331393883796292,2-chlorophenothiazine,methanol
990.0,CC(C)(C)C(O)(CCc1ccc(Cl)cc1)Cn1cncn1,CO,mol_990_solute_opt,mol_990_solvent_opt,50,23,278.15,-0.4064086397812216,Tebuconazole,methanol
991.0,CC(C)c1ncc[nH]1,CO,mol_991_solute_opt,mol_991_solvent_opt,50,31,278.15,0.8600770003592706,2-isopropylimidazole,methanol
992.0,Nc1ccc(N)c([N+](=O)[O-])c1,CO,mol_992_solute_opt,mol_992_solvent_opt,50,36,283.15,-0.6497475028349426,2-nitro-p-phenylenediamine,methanol
993.0,Cc1ccc(N)c([N+](=O)[O-])c1,CO,mol_993_solute_opt,mol_993_solvent_opt,50,38,278.15,-0.6599329081190721,4-methyl-2-nitroaniline,methanol
994.0,Cc1cc(C)[nH]n1,CO,mol_994_solute_opt,mol_994_solvent_opt,50,34,283.15,0.4742824422253808,"3,5-dimethylpyrazole",methanol
995.0,Cc1c(C(=O)O)cccc1[N+](=O)[O-],CO,mol_995_solute_opt,mol_995_solvent_opt,50,36,283.15,-0.3871851776199476,2-methyl-3-nitrobenzoic acid,methanol
996.0,O=C(Nc1ccccc1-c1ccc(Cl)cc1)c1cccnc1Cl,CO,mol_996_solute_opt,mol_996_solvent_opt,50,20,288.15,-1.3344203679288922,Boscalid,methanol
997.0,c1ccc(-c2nnn[nH]2)cc1,CO,mol_997_solute_opt,mol_997_solvent_opt,50,34,283.15,-0.4033250418955444,5-phenyltetrazole,methanol
998.0,Brc1cn[nH]c1,CO,mol_998_solute_opt,mol_998_solvent_opt,50,37,283.15,0.803877282250202,4-bromopyrazole,methanol
999.0,S=c1[nH]c2ccccc2s1,CO,mol_999_solute_opt,mol_999_solvent_opt,50,33,273.15,-0.7291455115699415,2-mercaptobenzothiazole,methanol
1000.0,NCC1(CC(=O)O)CCCCC1,CO,mol_1000_solute_opt,mol_1000_solvent_opt,50,21,283.15,-0.7431748873711894,Gabapentin,methanol
1001.0,NC(=O)c1ncn([C@@H]2O[C@H](CO)[C@@H](O)[C@H]2O)n1,CO,mol_1001_solute_opt,mol_1001_solvent_opt,50,28,278.15,-2.021234931181877,Ribavirin(II),methanol
1002.0,O=C1O[C@H]([C@@H](O)CO)C(O)=C1O,CO,mol_1002_solute_opt,mol_1002_solvent_opt,50,35,293.15,-0.3884836441386949,Vitamin C,methanol
1003.0,N[C@@H](Cc1ccc(O)cc1)C(=O)O,CO,mol_1003_solute_opt,mol_1003_solvent_opt,50,27,283.15,-4.794690613367817,L-tyrosine,methanol
1004.0,Clc1ncnc2nc[nH]c12,CO,mol_1004_solute_opt,mol_1004_solvent_opt,50,35,283.15,-0.5475356307916107,6-chloropurine,methanol
1005.0,COC(=O)Nc1nc2ccccc2[nH]1,CO,mol_1005_solute_opt,mol_1005_solvent_opt,50,22,278.15,-3.090592893159644,Carbendazim,methanol
1006.0,N[C@H](Cc1c[nH]c2ccccc12)C(=O)O,CO,mol_1006_solute_opt,mol_1006_solvent_opt,50,25,283.15,-2.3507130653964983,D-tryptophan,methanol
1007.0,NC(=NCCCCCCN=C(N)/N=C(\N)Nc1ccc(Cl)cc1)/N=C(\N)Nc1ccc(Cl)cc1,CO,mol_1007_solute_opt,mol_1007_solvent_opt,50,14,283.15,-1.7851737424468035,Chlorhexidine,methanol
1008.0,Nc1cccc2c1CN(C1CCC(=O)NC1=O)C2=O,CO,mol_1008_solute_opt,mol_1008_solvent_opt,50,23,293.15,-2.205338661837613,Lenalidomide,methanol
1009.0,CCCc1cc(=O)[nH]c(=S)[nH]1,CO,mol_1009_solute_opt,mol_1009_solvent_opt,50,25,278.15,-1.1038790352470802,Propylthiouracil,methanol
1010.0,Cc1c(C(N)=O)cc([N+](=O)[O-])cc1[N+](=O)[O-],CO,mol_1010_solute_opt,mol_1010_solvent_opt,50,35,283.15,-1.103024775178155,Dinitolmide,methanol
1011.0,C=NCC#N,CO,mol_1011_solute_opt,mol_1011_solvent_opt,50,36,278.15,-0.9586254260495076,Methyleneaminoacetonitrile,methanol
1012.0,O=C1NS(=O)(=O)c2ccccc21,CO,mol_1012_solute_opt,mol_1012_solvent_opt,50,33,278.15,-0.8634498786509801,Saccharin,methanol
1013.0,Cc1c([N+](=O)[O-])c(C)c([N+](=O)[O-])c(C(C)(C)C)c1[N+](=O)[O-],CO,mol_1013_solute_opt,mol_1013_solvent_opt,50,25,278.15,-1.3315984006807031,Musk xylene,methanol
1014.0,Cn1nnc2c(C(N)=O)ncn2c1=O,CO,mol_1014_solute_opt,mol_1014_solvent_opt,50,29,273.15,-2.356141682209368,Temozolomide,methanol
1015.0,COC(=O)Nc1nc2ccc(Sc3ccccc3)cc2[nH]1,CO,mol_1015_solute_opt,mol_1015_solvent_opt,50,25,273.15,-3.0303408169242387,Fenbendazole,methanol
1016.0,O=P1(O)Oc2ccc3ccccc3c2-c2c(ccc3ccccc23)O1,CO,mol_1016_solute_opt,mol_1016_solvent_opt,50,14,288.15,-1.077174752215651,"1,1′-binaphthyl-2,2′-diyl hydrogenphosphate",methanol
1017.0,O=C1OC(=O)[C@H]2[C@@H]1[C@@H]1C=C[C@H]2C1,CO,mol_1017_solute_opt,mol_1017_solvent_opt,50,35,278.15,-0.9927506543555508,"cis-5-norbornene-exo-2,3-dicarboxylic anhydride",methanol
1018.0,COc1ccccc1N1CCN(CC(O)COc2cccc3ccccc23)CC1,CO,mol_1018_solute_opt,mol_1018_solvent_opt,50,14,273.15,-1.8488341935311217,Naftopidil,methanol
1019.0,O=Cc1cc([N+](=O)[O-])ccc1O,CO,mol_1019_solute_opt,mol_1019_solvent_opt,50,35,273.15,-0.9704266002856828,5-nitrosalicylaldehyde,methanol
1020.0,O=c1[nH]c(=O)n(C2CCCO2)cc1F,CO,mol_1020_solute_opt,mol_1020_solvent_opt,50,32,273.15,-1.0371023478390815,β tegafur,methanol
1021.0,CN1COCN(Cc2cnc(Cl)s2)C1=N[N+](=O)[O-],CO,mol_1021_solute_opt,mol_1021_solvent_opt,50,24,278.15,-1.8018538597311828,Thiamethoxam,methanol
1022.0,Cn1c(=O)c2c(ncn2CC2OCCO2)n(C)c1=O,CO,mol_1022_solute_opt,mol_1022_solvent_opt,50,23,273.15,-1.4963473923724175,Doxofylline,methanol
1023.0,O=c1ccc(-c2ccccc2)n[nH]1,CO,mol_1023_solute_opt,mol_1023_solvent_opt,50,27,278.15,-1.5058488989474026,6-phenyl-3(2H)-pyridazinone,methanol
1024.0,N#Cc1ccc2c(c1)OCO2,CO,mol_1024_solute_opt,mol_1024_solvent_opt,50,36,278.15,-0.6809802270182481,Piperonylonitrile,methanol
1025.0,COc1ccc(-n2nc(C(N)=O)c3c2C(=O)N(c2ccc(N4CCCCC4=O)cc2)CC3)cc1,CO,mol_1025_solute_opt,mol_1025_solvent_opt,50,11,288.15,-2.0896221570093187,Apixaban,methanol
1026.0,CC(C)(Oc1ccc(CCNC(=O)c2ccc(Cl)cc2)cc1)C(=O)O,CO,mol_1026_solute_opt,mol_1026_solvent_opt,50,19,283.15,-1.3230783403018147,Bezafibrate,methanol
1027.0,CC(C)Oc1ccc2c(=O)c(-c3ccccc3)coc2c1,CO,mol_1027_solute_opt,mol_1027_solvent_opt,50,24,278.15,-1.674544697153204,Ipriflavone,methanol
1028.0,O=C(O)CCc1nc(-c2ccccc2)c(-c2ccccc2)o1,CO,mol_1028_solute_opt,mol_1028_solvent_opt,50,20,278.15,-1.2370815796297918,Oxaprozin,methanol
1029.0,COC1=CC(=O)C[C@@H](C)[C@]12Oc1c(Cl)c(OC)cc(OC)c1C2=O,CO,mol_1029_solute_opt,mol_1029_solvent_opt,50,24,278.15,-2.208061716590518,Griseofulvin,methanol
1030.0,O=c1c2ccccc2nc2n1CCc1c-2[nH]c2ccccc12,CO,mol_1030_solute_opt,mol_1030_solvent_opt,50,22,283.15,-2.8167166315609684,Rutaecarpine,methanol
1031.0,COCCOC(=O)C1=C(C)NC(C)=C(C(=O)OC(C)C)C1c1cccc([N+](=O)[O-])c1,CO,mol_1031_solute_opt,mol_1031_solvent_opt,50,15,278.15,-0.3975996945299442,Nimodipine,methanol
1032.0,CC(=O)Nc1ccc(OC(=O)c2ccccc2OC(C)=O)cc1,CO,mol_1032_solute_opt,mol_1032_solvent_opt,50,22,278.15,-1.9691960850567545,Benorilate,methanol
1033.0,CC#CCn1c(N2CCC[C@@H](N)C2)nc2c1c(=O)n(Cc1nc(C)c3ccccc3n1)c(=O)n2C,CO,mol_1033_solute_opt,mol_1033_solvent_opt,50,14,273.15,-1.811670658091906,Linagliptin,methanol
1034.0,O=c1cc(CO)occ1O,CO,mol_1034_solute_opt,mol_1034_solvent_opt,50,38,278.15,-0.905259023872429,Kojic acid,methanol
1035.0,CCCCN(CCCC)CC(O)c1cc(Cl)cc2c1-c1ccc(Cl)cc1/C2=C/c1ccc(Cl)cc1,CO,mol_1035_solute_opt,mol_1035_solvent_opt,50,15,278.15,-3.4723748416494136,Benflumetol,methanol
1036.0,CS(=O)(=O)OCCCCOS(C)(=O)=O,CO,mol_1036_solute_opt,mol_1036_solvent_opt,50,42,278.15,-2.964306934687273,Busulfan,methanol
1037.0,CCCNS(=O)(=O)Nc1ncnc(OCCOc2ncc(Br)cn2)c1-c1ccc(Br)cc1,CO,mol_1037_solute_opt,mol_1037_solvent_opt,50,24,273.15,-2.716418893654274,Macitentan,methanol
1038.0,CN1CCN(C2=Nc3cc(Cl)ccc3Nc3ccccc32)CC1,CO,mol_1038_solute_opt,mol_1038_solvent_opt,50,15,278.15,-0.7959241822758295,Clozapine,methanol
1039.0,CC(=O)Nc1ccc(C(=O)O)cc1,CO,mol_1039_solute_opt,mol_1039_solvent_opt,50,28,283.15,-0.821372767488006,p-acetamidobenzoic acid,methanol
1040.0,Clc1ncnc2[nH]ccc12,CO,mol_1040_solute_opt,mol_1040_solvent_opt,50,41,278.15,-0.7840639582320429,6-chloro-7-azapurine,methanol
1041.0,S=C(Nc1ccccc1)Nc1ccccc1,CO,mol_1041_solute_opt,mol_1041_solvent_opt,50,23,283.15,-1.354916897585413,"N,N'-diphenyl thiourea (DPTU)",methanol
1042.0,c1ccc2[nH]c(-c3cscn3)nc2c1,CO,mol_1042_solute_opt,mol_1042_solvent_opt,50,26,283.15,-1.4872520102530395,Thiabendazole,methanol
1043.0,CC(=O)NC1CCSC1=O,CO,mol_1043_solute_opt,mol_1043_solvent_opt,50,33,278.15,0.2852078409364438,Citiolone,methanol
1044.0,CC(CO)(CO)C(=O)O,CO,mol_1044_solute_opt,mol_1044_solvent_opt,50,25,288.15,-0.2464782569009242,Dimethylolpropionic acid,methanol
1045.0,O=C1CCc2cc(O)ccc2N1,CO,mol_1045_solute_opt,mol_1045_solvent_opt,50,35,278.15,-1.2489763209475606,"6-hydroxy-3,4-dihydro-2(1H)-quinolone",methanol
1046.0,CNC(=O)c1cc(Oc2ccc(NC(=O)Nc3ccc(Cl)c(C(F)(F)F)c3)c(F)c2)ccn1,CO,mol_1046_solute_opt,mol_1046_solvent_opt,50,15,278.15,-2.101362065326704,Regorafenib,methanol
1047.0,CC(=O)c1c(C)c([N+](=O)[O-])c(C(C)(C)C)c([N+](=O)[O-])c1C,CO,mol_1047_solute_opt,mol_1047_solvent_opt,50,18,278.15,-1.486641231206535,Musk ketone,methanol
1048.0,CCS(=O)(=O)CCn1c([N+](=O)[O-])cnc1C,CO,mol_1048_solute_opt,mol_1048_solvent_opt,50,15,278.15,-1.631858254811493,Tinidazole,methanol
1049.0,CC(C)OC(=O)[C@H](C)N[P@](=O)(Oc1ccccc1)Oc1c(F)c(F)c(F)c(F)c1F,CO,mol_1049_solute_opt,mol_1049_solvent_opt,50,17,278.15,-1.2367032257614154,SOV-I2,methanol
1050.0,O=[N+]([O-])c1cc([N+](=O)[O-])c(Cl)c([N+](=O)[O-])c1Cl,CO,mol_1050_solute_opt,mol_1050_solvent_opt,50,29,298.15,-1.1165623016613353,"1,3-dichloro-2,4,6-trinitrobenzene",methanol
1051.0,CCOC(=O)OC1=C(c2cc(C)ccc2C)C(=O)NC12CCC(OC)CC2,CO,mol_1051_solute_opt,mol_1051_solvent_opt,50,15,278.15,-0.8695342039987447,Spirotetramat,methanol
1052.0,COC1CCC2(CC1)NC(=O)C(c1cc(C)ccc1C)=C2O,CO,mol_1052_solute_opt,mol_1052_solvent_opt,50,15,288.15,-1.072787375577664,"cis-3-(2,5-dimethylphenyl)-4-hydroxy-8-methoxy-1-azaspiro[4.5]dec-3-en-2-one (si-vi)",methanol
1053.0,O=C(O)COc1ccc2ccccc2c1,CO,mol_1053_solute_opt,mol_1053_solvent_opt,50,30,278.15,-0.4718007002237907,2-naphthoxyacetic acid,methanol
1054.0,O=c1c2ccccc2sc2ccccc12,CO,mol_1054_solute_opt,mol_1054_solvent_opt,50,26,292.15,-2.393964742124432,9H-thioxanthen-9-one,methanol
1055.0,Nc1cc(C(=O)O)ccc1C(=O)O,CO,mol_1055_solute_opt,mol_1055_solvent_opt,50,35,303.15,0.2536531716570492,2-aminoterephthalic acid,methanol
1056.0,CC(=O)N1CCN(c2ccc(O)cc2)CC1,CO,mol_1056_solute_opt,mol_1056_solvent_opt,50,26,283.15,-1.1445144520347936,1-[4-(4-hydroxyphenyl)piperazin-1-yl]ethenone,methanol
1057.0,O=C(Nc1ccc(F)cc1F)c1cccnc1Oc1cccc(C(F)(F)F)c1,CO,mol_1057_solute_opt,mol_1057_solvent_opt,50,19,278.15,-2.2508237315706165,Diflufenican,methanol
1058.0,COc1ccc(Cl)cc1C(=O)NCCc1ccc(S(=O)(=O)NC(=O)NC2CCCCC2)cc1,CO,mol_1058_solute_opt,mol_1058_solvent_opt,50,17,288.15,-2.348179529431105,Glyburide,methanol
1059.0,CC(=O)c1c(C)cc(C(C)(C)C)cc1C,CO,mol_1059_solute_opt,mol_1059_solvent_opt,50,17,273.15,0.2134995849649312,"1-(4-tert-butyl-2,6-dimethylphenyl)ethenone",methanol
1060.0,CONC(=O)Nc1ccc(-c2sc3c(c2CN(C)C)c(=O)n(-c2ccc(OC)nn2)c(=O)n3Cc2c(F)cccc2F)cc1,CO,mol_1060_solute_opt,mol_1060_solvent_opt,50,15,298.15,-1.968450397775519,Relugolix,methanol
1061.0,CC(=O)Oc1ccc(C(c2ccc(OC(C)=O)cc2)c2ccccn2)cc1,CO,mol_1061_solute_opt,mol_1061_solvent_opt,50,15,278.15,-1.85865513509806,Bisacodyl,methanol
1062.0,COc1cc(/C=C/C(=O)O)cc(OC)c1OC,CO,mol_1062_solute_opt,mol_1062_solvent_opt,50,25,278.15,-0.7760668659631703,"3,4,5-trimethoxycinnamic acid",methanol
1063.0,O=C1CCC(=O)CC1,CO,mol_1063_solute_opt,mol_1063_solvent_opt,50,38,278.15,0.5023040929520979,"1,4-cyclohexanedione",methanol
1064.0,O=C(O)c1cccnc1,CO,mol_1064_solute_opt,mol_1064_solvent_opt,50,33,283.15,-1.2248170044419753,Nicotinic acid,methanol
1065.0,Nc1cncc(Cl)n1,CO,mol_1065_solute_opt,mol_1065_solvent_opt,50,38,278.15,-1.5424092139640089,2-amino-6-chloropyrazine,methanol
1066.0,CCC(C)n1ncn(-c2ccc(N3CCN(c4ccc(OCC5COC(Cn6cncn6)(c6ccc(Cl)cc6Cl)O5)cc4)CC3)cc2)c1=O,CO,mol_1066_solute_opt,mol_1066_solvent_opt,50,15,288.15,-3.2338976477634467,Itraconazole,methanol
1067.0,CCCSc1ccc2nc(NC(=O)OC)[nH]c2c1,CO,mol_1067_solute_opt,mol_1067_solvent_opt,50,21,278.15,-2.652974992425091,Albendazole,methanol
1068.0,O=S(=O)(c1ccccc1)c1ccc(Cl)cc1,CO,mol_1068_solute_opt,mol_1068_solvent_opt,50,12,278.15,-2.159252925826128,Sulfenone,methanol
1069.0,CCOc1cccc(C=O)c1O,CO,mol_1069_solute_opt,mol_1069_solvent_opt,50,30,278.15,-0.2989566746526287,3-ethoxysalicylaldehyde,methanol
1070.0,CN(C)NC(=O)CCC(=O)O,CO,mol_1070_solute_opt,mol_1070_solvent_opt,50,29,283.15,-0.6835995979185365,Daminozide,methanol
1071.0,CC(C)(C)C(=O)C(Oc1ccc(Cl)cc1)n1ccnc1,CO,mol_1071_solute_opt,mol_1071_solvent_opt,50,25,288.15,0.6780881991277203,Climbazole,methanol