pair_id,SMILES_Solute,SMILES_Solvent,Solute_name,Solvent_name,Total_conformers,Filtered_conformers,Temperature_K,LogS,Compound_Name,Solvent
3639.0,Cc1cccc([N+](=O)[O-])c1N,CCCO,mol_3639_solute_opt,mol_3639_solvent_opt,50,43,278.15,-0.8290182288188844,2-methyl-6-nitroaniline,n-propanol
3640.0,N#Cc1ccccc1-c1ccc(CBr)cc1,CCCO,mol_3640_solute_opt,mol_3640_solvent_opt,50,37,278.15,-2.150928641114209,4′-bromomethyl-2-cyanobiphenyl,n-propanol
3641.0,Nc1ccc([N+](=O)[O-])cc1[N+](=O)[O-],CCCO,mol_3641_solute_opt,mol_3641_solvent_opt,50,39,278.15,-1.8551411833979583,"2,4-dinitroaniline",n-propanol
3642.0,O=Cc1ccc(C=O)cc1,CCCO,mol_3642_solute_opt,mol_3642_solvent_opt,50,41,273.15,-0.9571490046449616,Terephthaldialdehyde,n-propanol
3643.0,Cc1cc(C(=O)O)ccc1[N+](=O)[O-],CCCO,mol_3643_solute_opt,mol_3643_solvent_opt,50,39,283.15,-1.0054222036999263,3-methyl-4-nitrobenzoic acid,n-propanol
3644.0,CO[C@@]1(NC(=O)Cc2cccs2)C(=O)N2C(C(=O)O)=C(COC(N)=O)CS[C@@H]21,CCCO,mol_3644_solute_opt,mol_3644_solvent_opt,50,29,278.15,-2.5465053325110274,Cefoxitin acid,n-propanol
3645.0,CC1=NN(c2ccc(C)cc2)C(=O)C1,CCCO,mol_3645_solute_opt,mol_3645_solvent_opt,50,38,278.15,-0.6106800212597048,"2,4-dihydro-5-methyl-2-(4-methylphenyl)-3H-pyrazol-3-one",n-propanol
3646.0,O=C(O)c1ccccc1Nc1ccccc1,CCCO,mol_3646_solute_opt,mol_3646_solvent_opt,50,30,283.15,-1.0007450846643104,N-phenylanthranilic acid,n-propanol
3647.0,Cc1ccc(S(C)(=O)=O)cc1,CCCO,mol_3647_solute_opt,mol_3647_solvent_opt,50,33,278.15,-1.0894621122182542,1-methyl-4-(methylsulfonyl)benzene,n-propanol
3648.0,NC(=O)N1c2ccccc2CC(=O)c2ccccc21,CCCO,mol_3648_solute_opt,mol_3648_solvent_opt,50,37,288.15,-2.482433762665757,Oxcarbazepine,n-propanol
3649.0,O=Cc1ccc([N+](=O)[O-])cc1,CCCO,mol_3649_solute_opt,mol_3649_solvent_opt,50,44,273.15,-0.7139933088718229,4-nitrobenzaldehyde,n-propanol
3650.0,C[C@@H]1O[C@@H](OC[C@H]2O[C@@H](Oc3c(-c4ccc(OCCO)c(OCCO)c4)oc4cc(OCCO)cc(O)c4c3=O)[C@H](O)[C@@H](O)[C@@H]2O)[C@H](O)[C@H](O)[C@H]1O,CCCO,mol_3650_solute_opt,mol_3650_solvent_opt,50,17,288.15,-2.713281227210908,Troxerutin,n-propanol
3651.0,Nc1nnc[nH]1,CCCO,mol_3651_solute_opt,mol_3651_solvent_opt,50,39,283.15,-1.111138361397814,"3-amino-1,2,4-triazole",n-propanol
3652.0,CC(C)(C)[C@H](O)[C@H](Cc1ccc(Cl)cc1)n1cncn1,CCCO,mol_3652_solute_opt,mol_3652_solvent_opt,50,31,278.15,-0.7690271080502981,Paclobutrazol,n-propanol
3653.0,Cn1cnc([N+](=O)[O-])c1Cl,CCCO,mol_3653_solute_opt,mol_3653_solvent_opt,50,42,283.15,-1.686838275555905,5-chloro-1-methyl-4-nitroimidazole,n-propanol
3654.0,CC(C)C(=O)OCC(=O)[C@@]12O[C@H](C3CCCCC3)O[C@@H]1C[C@H]1[C@@H]3CCC4=CC(=O)C=C[C@]4(C)[C@H]3[C@@H](O)C[C@@]12C,CCCO,mol_3654_solute_opt,mol_3654_solvent_opt,50,23,278.15,-0.7117716305751807,Ciclesonide,n-propanol
3655.0,COc1cc(Cl)nc(N)n1,CCCO,mol_3655_solute_opt,mol_3655_solvent_opt,50,39,273.15,-1.7770262698915795,2-amino-4-chloro-6-methoxypyrimidine,n-propanol
3656.0,Cc1cc([N+](=O)[O-])ccc1N,CCCO,mol_3656_solute_opt,mol_3656_solvent_opt,50,43,278.15,-1.0642409316290438,2-methyl-4-nitroaniline,n-propanol
3657.0,O=Cc1cccc([N+](=O)[O-])c1,CCCO,mol_3657_solute_opt,mol_3657_solvent_opt,50,42,273.15,-0.4489768845630542,3-nitrobenzaldehyde,n-propanol
3658.0,CC(=O)[C@@]1(O)CC[C@H]2[C@@H]3CCC4=CC(=O)CC[C@]4(C)[C@H]3[C@@H](O)C[C@@]21C,CCCO,mol_3658_solute_opt,mol_3658_solvent_opt,50,36,278.15,-0.9402591354629254,"11α,17α-dihydroxy-4-pregnene-3,20-dione",n-propanol
3659.0,Nc1ccc([N+](=O)[O-])cc1N,CCCO,mol_3659_solute_opt,mol_3659_solvent_opt,50,41,283.15,-2.11344878579243,"4-nitro-1,2-phenylenediamine",n-propanol
3660.0,Nc1cc(Cl)ccc1C(=O)O,CCCO,mol_3660_solute_opt,mol_3660_solvent_opt,50,41,278.15,-0.9244988566226215,2-amino-4-chlorobenzoic acid,n-propanol
3661.0,Clc1ccc2c(c1)Nc1ccccc1S2,CCCO,mol_3661_solute_opt,mol_3661_solvent_opt,50,39,283.15,-1.2547743689703452,2-chlorophenothiazine,n-propanol
3662.0,CC(C)(C)C(O)(CCc1ccc(Cl)cc1)Cn1cncn1,CCCO,mol_3662_solute_opt,mol_3662_solvent_opt,50,36,278.15,-1.016516971378534,Tebuconazole,n-propanol
3663.0,CC(C)c1ncc[nH]1,CCCO,mol_3663_solute_opt,mol_3663_solvent_opt,50,37,278.15,0.1783582855972021,2-isopropylimidazole,n-propanol
3664.0,Nc1ccc(N)c([N+](=O)[O-])c1,CCCO,mol_3664_solute_opt,mol_3664_solvent_opt,50,37,283.15,-1.1845594001335729,2-nitro-p-phenylenediamine,n-propanol
3665.0,Cc1ccc(N)c([N+](=O)[O-])c1,CCCO,mol_3665_solute_opt,mol_3665_solvent_opt,50,42,278.15,-0.8173830990292704,4-methyl-2-nitroaniline,n-propanol
3666.0,Cc1cc(C)[nH]n1,CCCO,mol_3666_solute_opt,mol_3666_solvent_opt,50,41,283.15,0.2779654895350949,"3,5-dimethylpyrazole",n-propanol
3667.0,Cc1c(C(=O)O)cccc1[N+](=O)[O-],CCCO,mol_3667_solute_opt,mol_3667_solvent_opt,50,37,283.15,-0.8179865305981986,2-methyl-3-nitrobenzoic acid,n-propanol
3668.0,NC(=O)c1cnccn1,CCCO,mol_3668_solute_opt,mol_3668_solvent_opt,50,43,278.15,-1.9775194653953028,Pyrazinamide,n-propanol
3669.0,c1ccc(-c2nnn[nH]2)cc1,CCCO,mol_3669_solute_opt,mol_3669_solvent_opt,50,41,283.15,-0.72920964359433,5-phenyltetrazole,n-propanol
3670.0,S=c1[nH]c2ccccc2s1,CCCO,mol_3670_solute_opt,mol_3670_solvent_opt,50,40,273.15,-0.6808618787407463,2-mercaptobenzothiazole,n-propanol
3671.0,NC(=O)c1ncn([C@@H]2O[C@H](CO)[C@@H](O)[C@H]2O)n1,CCCO,mol_3671_solute_opt,mol_3671_solvent_opt,50,41,278.15,-3.089995166466598,Ribavirin(II),n-propanol
3672.0,Nc1ccc(S(=O)(=O)c2ccc(N)cc2)cc1,CCCO,mol_3672_solute_opt,mol_3672_solvent_opt,50,29,278.15,-1.401550445959027,Dapsone,n-propanol
3673.0,N[C@@H](Cc1ccc(O)cc1)C(=O)O,CCCO,mol_3673_solute_opt,mol_3673_solvent_opt,50,39,283.15,-5.928875777789456,L-tyrosine,n-propanol
3674.0,COC(=O)Nc1nc2ccccc2[nH]1,CCCO,mol_3674_solute_opt,mol_3674_solvent_opt,50,35,278.15,-4.35181256077714,Carbendazim,n-propanol
3675.0,c1ccc2c(c1)sc1ccccc12,CCCO,mol_3675_solute_opt,mol_3675_solvent_opt,50,42,288.05,-1.055748647417238,Dibenzothiophene,n-propanol
3676.0,COc1cc(/C=C/C(=O)CC(=O)/C=C/c2ccc(O)c(OC)c2)ccc1O,CCCO,mol_3676_solute_opt,mol_3676_solvent_opt,50,29,278.15,-1.5046193128610594,Curcumin,n-propanol
3677.0,CCCc1cc(=O)[nH]c(=S)[nH]1,CCCO,mol_3677_solute_opt,mol_3677_solvent_opt,50,39,278.15,-1.5307587090844532,Propylthiouracil,n-propanol
3678.0,Cc1c(C(N)=O)cc([N+](=O)[O-])cc1[N+](=O)[O-],CCCO,mol_3678_solute_opt,mol_3678_solvent_opt,50,33,283.15,-1.6049087622773892,Dinitolmide,n-propanol
3679.0,C=NCC#N,CCCO,mol_3679_solute_opt,mol_3679_solvent_opt,50,41,278.15,-1.8709169065468885,Methyleneaminoacetonitrile,n-propanol
3680.0,O=C1NS(=O)(=O)c2ccccc21,CCCO,mol_3680_solute_opt,mol_3680_solvent_opt,50,47,278.15,-1.373044727116447,Saccharin,n-propanol
3681.0,O=C1CCc2ccc(OCCCCN3CCN(c4cccc(Cl)c4Cl)CC3)cc2N1,CCCO,mol_3681_solute_opt,mol_3681_solvent_opt,50,26,278.15,-3.7019071967165154,Aripiprazole,n-propanol
3682.0,Cn1nnc2c(C(N)=O)ncn2c1=O,CCCO,mol_3682_solute_opt,mol_3682_solvent_opt,50,41,273.15,-3.2335218369229284,Temozolomide,n-propanol
3683.0,COC(=O)Nc1nc2ccc(Sc3ccccc3)cc2[nH]1,CCCO,mol_3683_solute_opt,mol_3683_solvent_opt,50,36,273.15,-3.091318211705667,Fenbendazole,n-propanol
3684.0,O=P1(O)Oc2ccc3ccccc3c2-c2c(ccc3ccccc23)O1,CCCO,mol_3684_solute_opt,mol_3684_solvent_opt,50,36,288.15,-1.1847538120002823,"1,1′-binaphthyl-2,2′-diyl hydrogenphosphate",n-propanol
3685.0,Oc1ccc(OCc2ccccc2)cc1,CCCO,mol_3685_solute_opt,mol_3685_solvent_opt,50,34,283.15,-0.2719030859231936,Monobenzone,n-propanol
3686.0,Cc1ccc(NC(=O)c2ccc(CN3CCN(C)CC3)cc2)cc1Nc1nccc(-c2cccnc2)n1,CCCO,mol_3686_solute_opt,mol_3686_solvent_opt,50,20,273.15,-2.217408354452918,Imatinib,n-propanol
3687.0,Cc1nnc(C(C)C)n1C1C[C@H]2CC[C@@H](C1)N2CC[C@H](NC(=O)C1CCC(F)(F)CC1)c1ccccc1,CCCO,mol_3687_solute_opt,mol_3687_solvent_opt,50,21,278.15,-2.5242449198053363,Maraviroc,n-propanol
3688.0,O=C(NC(Cc1cc(=O)[nH]c2ccccc12)C(=O)O)c1ccc(Cl)cc1,CCCO,mol_3688_solute_opt,mol_3688_solvent_opt,50,34,278.15,-3.2383419157696323,Rebamipide,n-propanol
3689.0,Cc1[nH]nc2cc([N+](=O)[O-])ccc12,CCCO,mol_3689_solute_opt,mol_3689_solvent_opt,50,41,278.15,-1.1572815474300346,3-methyl-6-nitroindazole,n-propanol
3690.0,O=c1[nH]c(=O)n(C2CCCO2)cc1F,CCCO,mol_3690_solute_opt,mol_3690_solvent_opt,50,35,273.15,-1.8156678599778,β tegafur,n-propanol
3691.0,Cn1c(=O)c2c(ncn2CC2OCCO2)n(C)c1=O,CCCO,mol_3691_solute_opt,mol_3691_solvent_opt,50,34,273.15,-2.211576203860004,Doxofylline,n-propanol
3692.0,N#Cc1ccc2c(c1)OCO2,CCCO,mol_3692_solute_opt,mol_3692_solvent_opt,50,38,278.15,-1.0840689466158255,Piperonylonitrile,n-propanol
3693.0,COc1cccc(C=O)c1O,CCCO,mol_3693_solute_opt,mol_3693_solvent_opt,50,40,273.15,-0.3570637302542696,o-vanillin,n-propanol
3694.0,CC(C)(Oc1ccc(CCNC(=O)c2ccc(Cl)cc2)cc1)C(=O)O,CCCO,mol_3694_solute_opt,mol_3694_solvent_opt,50,31,283.15,-1.4768070947087983,Bezafibrate,n-propanol
3695.0,CC(C)Oc1ccc2c(=O)c(-c3ccccc3)coc2c1,CCCO,mol_3695_solute_opt,mol_3695_solvent_opt,50,26,278.15,-1.7368821605215938,Ipriflavone,n-propanol
3696.0,O=C(O)CCc1nc(-c2ccccc2)c(-c2ccccc2)o1,CCCO,mol_3696_solute_opt,mol_3696_solvent_opt,50,31,278.15,-1.4595088308488318,Oxaprozin,n-propanol
3697.0,Clc1ccccc1C(c1ccccc1)(c1ccccc1)n1ccnc1,CCCO,mol_3697_solute_opt,mol_3697_solvent_opt,50,31,278.15,-0.7654891913172047,Clotrimazole,n-propanol
3698.0,COCCOC(=O)C1=C(C)NC(C)=C(C(=O)OC(C)C)C1c1cccc([N+](=O)[O-])c1,CCCO,mol_3698_solute_opt,mol_3698_solvent_opt,50,28,278.15,-0.8197654818280959,Nimodipine,n-propanol
3699.0,CC(=O)Nc1ccc(OC(=O)c2ccccc2OC(C)=O)cc1,CCCO,mol_3699_solute_opt,mol_3699_solvent_opt,50,37,278.15,-2.609400687331346,Benorilate,n-propanol
3700.0,CC#CCn1c(N2CCC[C@@H](N)C2)nc2c1c(=O)n(Cc1nc(C)c3ccccc3n1)c(=O)n2C,CCCO,mol_3700_solute_opt,mol_3700_solvent_opt,50,30,273.15,-2.3308095339645685,Linagliptin,n-propanol
3701.0,O=c1cc(CO)occ1O,CCCO,mol_3701_solute_opt,mol_3701_solvent_opt,50,39,278.15,-1.5145778464730877,Kojic acid,n-propanol
3702.0,CCCCN(CCCC)CC(O)c1cc(Cl)cc2c1-c1ccc(Cl)cc1/C2=C/c1ccc(Cl)cc1,CCCO,mol_3702_solute_opt,mol_3702_solvent_opt,50,24,278.15,-2.931613172993929,Benflumetol,n-propanol
3703.0,CS(=O)(=O)OCCCCOS(C)(=O)=O,CCCO,mol_3703_solute_opt,mol_3703_solvent_opt,50,47,278.15,-4.213943408511665,Busulfan,n-propanol
3704.0,CN1CCN(C2=Nc3cc(Cl)ccc3Nc3ccccc32)CC1,CCCO,mol_3704_solute_opt,mol_3704_solvent_opt,50,33,278.15,-1.1031662132565512,Clozapine,n-propanol
3705.0,CC(=O)Nc1ccc(C(=O)O)cc1,CCCO,mol_3705_solute_opt,mol_3705_solvent_opt,50,38,283.15,-1.1859207183073313,p-acetamidobenzoic acid,n-propanol
3706.0,Clc1ncnc2[nH]ccc12,CCCO,mol_3706_solute_opt,mol_3706_solvent_opt,50,40,278.15,-0.8716547229195448,6-chloro-7-azapurine,n-propanol
3707.0,Nc1nc2ccc(OC(F)(F)F)cc2s1,CCCO,mol_3707_solute_opt,mol_3707_solvent_opt,50,39,278.15,0.4720903963218855,Riluzole,n-propanol
3708.0,O=C(O)COc1ccc(Cl)cc1Cl,CCCO,mol_3708_solute_opt,mol_3708_solvent_opt,50,38,278.15,-0.158884754438164,"2,4-dichlorophenoxyacetic acid",n-propanol
3709.0,S=C(Nc1ccccc1)Nc1ccccc1,CCCO,mol_3709_solute_opt,mol_3709_solvent_opt,50,31,283.15,-1.7121701167409158,"N,N'-diphenyl thiourea (DPTU)",n-propanol
3710.0,c1ccc2[nH]c(-c3cscn3)nc2c1,CCCO,mol_3710_solute_opt,mol_3710_solvent_opt,50,35,283.15,-1.7339353409560248,Thiabendazole,n-propanol
3711.0,CC(=O)NC1CCSC1=O,CCCO,mol_3711_solute_opt,mol_3711_solvent_opt,50,35,278.15,-0.4038522027168278,Citiolone,n-propanol
3712.0,CC(CO)(CO)C(=O)O,CCCO,mol_3712_solute_opt,mol_3712_solvent_opt,50,38,288.15,-1.038167422251127,Dimethylolpropionic acid,n-propanol
3713.0,O=c1cc(CBr)c2ccccc2[nH]1,CCCO,mol_3713_solute_opt,mol_3713_solvent_opt,50,35,278.15,-2.482519975378765,4-(bromomethyl)-2(1H)-quinolinone,n-propanol
3714.0,O=C1CCc2cc(O)ccc2N1,CCCO,mol_3714_solute_opt,mol_3714_solvent_opt,50,38,278.15,-1.62886302846286,"6-hydroxy-3,4-dihydro-2(1H)-quinolone",n-propanol
3715.0,CNC(=O)c1cc(Oc2ccc(NC(=O)Nc3ccc(Cl)c(C(F)(F)F)c3)c(F)c2)ccn1,CCCO,mol_3715_solute_opt,mol_3715_solvent_opt,50,22,278.15,-2.021135311461837,Regorafenib,n-propanol
3716.0,CC(C)OC(=O)[C@H](C)N[P@](=O)(Oc1ccccc1)Oc1c(F)c(F)c(F)c(F)c1F,CCCO,mol_3716_solute_opt,mol_3716_solvent_opt,50,25,278.15,-1.7093793416266874,SOV-I2,n-propanol
3717.0,COC1CCC2(CC1)NC(=O)C(c1cc(C)ccc1C)=C2O,CCCO,mol_3717_solute_opt,mol_3717_solvent_opt,50,34,288.15,-1.4688645058061802,"cis-3-(2,5-dimethylphenyl)-4-hydroxy-8-methoxy-1-azaspiro[4.5]dec-3-en-2-one (si-vi)",n-propanol
3718.0,O=C(O)COc1ccc2ccccc2c1,CCCO,mol_3718_solute_opt,mol_3718_solvent_opt,50,34,278.15,-0.8571265935408856,2-naphthoxyacetic acid,n-propanol
3719.0,O=c1c2ccccc2sc2ccccc12,CCCO,mol_3719_solute_opt,mol_3719_solvent_opt,50,39,292.15,-2.136191334230799,9H-thioxanthen-9-one,n-propanol
3720.0,Nc1cc(C(=O)O)ccc1C(=O)O,CCCO,mol_3720_solute_opt,mol_3720_solvent_opt,50,36,303.25,-0.7364909737062528,2-aminoterephthalic acid,n-propanol
3721.0,CC(=O)N1CCN(c2ccc(O)cc2)CC1,CCCO,mol_3721_solute_opt,mol_3721_solvent_opt,50,35,283.15,-1.614982814819716,1-[4-(4-hydroxyphenyl)piperazin-1-yl]ethenone,n-propanol
3722.0,COc1ccc(Cl)cc1C(=O)NCCc1ccc(S(=O)(=O)NC(=O)NC2CCCCC2)cc1,CCCO,mol_3722_solute_opt,mol_3722_solvent_opt,50,36,288.15,-2.680187753142899,Glyburide,n-propanol
3723.0,O=C1CCC(=O)CC1,CCCO,mol_3723_solute_opt,mol_3723_solvent_opt,50,43,278.15,-0.8806972752530488,"1,4-cyclohexanedione",n-propanol
3724.0,O=C(O)c1cccnc1,CCCO,mol_3724_solute_opt,mol_3724_solvent_opt,50,41,283.15,-1.615711378623756,Nicotinic acid,n-propanol
3725.0,CCCCOC(=O)c1ccc(O)cc1,CCCO,mol_3725_solute_opt,mol_3725_solvent_opt,50,36,288.15,0.7368991787206952,Butyl paraben,n-propanol
3726.0,CCCOC(=O)c1ccc(O)cc1,CCCO,mol_3726_solute_opt,mol_3726_solvent_opt,50,39,288.15,0.3874432644099674,Propylparaben,n-propanol
3727.0,CCOC(=O)c1ccc(O)cc1,CCCO,mol_3727_solute_opt,mol_3727_solvent_opt,50,38,288.15,0.2899068925102191,Ethylparaben,n-propanol
3728.0,COC(=O)c1ccc(O)cc1,CCCO,mol_3728_solute_opt,mol_3728_solvent_opt,50,43,288.15,0.2471458686132883,Methyl paraben,n-propanol
3729.0,Nc1cncc(Cl)n1,CCCO,mol_3729_solute_opt,mol_3729_solvent_opt,50,38,278.15,-1.1716337399581958,2-amino-6-chloropyrazine,n-propanol
3730.0,CCC(C)n1ncn(-c2ccc(N3CCN(c4ccc(OCC5COC(Cn6cncn6)(c6ccc(Cl)cc6Cl)O5)cc4)CC3)cc2)c1=O,CCCO,mol_3730_solute_opt,mol_3730_solvent_opt,50,25,288.15,-3.778279191767549,Itraconazole,n-propanol
3731.0,O=S(=O)(c1ccccc1)c1ccc(Cl)cc1,CCCO,mol_3731_solute_opt,mol_3731_solvent_opt,50,31,278.15,-1.319951364166031,Sulfenone,n-propanol
3732.0,CCOc1cccc(C=O)c1O,CCCO,mol_3732_solute_opt,mol_3732_solvent_opt,50,36,278.15,-0.6994465029970616,3-ethoxysalicylaldehyde,n-propanol
3733.0,CN(C)NC(=O)CCC(=O)O,CCCO,mol_3733_solute_opt,mol_3733_solvent_opt,50,35,283.15,-1.893960331400546,Daminozide,n-propanol
3734.0,COc1ccc2cccc(CCNC(C)=O)c2c1,CCCO,mol_3734_solute_opt,mol_3734_solvent_opt,50,28,278.15,-0.9065610394123762,Agomelatine,n-propanol
3735.0,Clc1cccnc1Cl,CCCO,mol_3735_solute_opt,mol_3735_solvent_opt,50,41,278.15,-0.2728120382398453,"2,3-dichloropyridine",n-propanol
3736.0,O=C(O)c1cccc(C(=O)O)c1,CCCO,mol_3736_solute_opt,mol_3736_solvent_opt,50,40,283.15,-1.4104856286171692,Isophthalic acid,n-propanol
3737.0,Nc1nc(N)c2nc(-c3ccccc3)c(N)nc2n1,CCCO,mol_3737_solute_opt,mol_3737_solvent_opt,50,34,283.15,-4.242487239411371,Triamterene,n-propanol
3738.0,CC(=O)C1C(=O)C=C(C)OC1=O,CCCO,mol_3738_solute_opt,mol_3738_solvent_opt,50,40,287.95,-1.1506711054788905,Dehydroacetic acid,n-propanol
3739.0,O=C(O)/C=C/c1ccc(Cl)cc1,CCCO,mol_3739_solute_opt,mol_3739_solvent_opt,50,36,283.15,-1.7885540952078447,trans-4-chlorocinnamic acid,n-propanol
3740.0,CCOc1ccc2ccccc2c1C(=O)O,CCCO,mol_3740_solute_opt,mol_3740_solvent_opt,50,37,278.15,-0.5315159763675746,2-ethoxy-1-naphthoic acid,n-propanol
3741.0,OCC1(O)OC[C@@H](O)[C@H](O)[C@@H]1O,CCCO,mol_3741_solute_opt,mol_3741_solvent_opt,50,35,283.15,-2.2893938334351818,D-tagatose,n-propanol
3742.0,N#Cc1ccc(C(c2ccc(C#N)cc2)n2cncn2)cc1,CCCO,mol_3742_solute_opt,mol_3742_solvent_opt,50,32,283.15,-2.323388098258856,Letrozole,n-propanol
3743.0,NC(N)=O,CCCO,mol_3743_solute_opt,mol_3743_solvent_opt,50,41,293.15,-0.4720986813345058,Urea,n-propanol
3744.0,Cc1cccc(N(C)C(=S)Oc2ccc3ccccc3c2)c1,CCCO,mol_3744_solute_opt,mol_3744_solvent_opt,50,32,283.15,-2.037177732926286,Tolnaftate,n-propanol
3745.0,O=C(O)c1cccc([N+](=O)[O-])c1,CCCO,mol_3745_solute_opt,mol_3745_solvent_opt,50,43,298.2,0.3672714072863368,3-nitrobenzoic acid,n-propanol
3746.0,O=C(O)c1cn(C2CC2)c2cc(N3CCNCC3)c(F)cc2c1=O,CCCO,mol_3746_solute_opt,mol_3746_solvent_opt,50,32,293.15,-4.560615852142945,Ciprofloxacin,n-propanol
3747.0,OC[C@@H](O)[C@@H](O)[C@H](O)[C@@H](O)CO,CCCO,mol_3747_solute_opt,mol_3747_solvent_opt,50,35,278.15,-2.124192514033312,D-sorbitol,n-propanol
3748.0,CCOC(=O)Cc1c(C(=O)OCC)sc(N(CC(=O)OCC)CC(=O)OCC)c1C#N,CCCO,mol_3748_solute_opt,mol_3748_solvent_opt,50,32,283.15,-2.0785780435882923,Tetraethyl ranelate,n-propanol
3749.0,O=P(O)(O)c1ccccc1,CCCO,mol_3749_solute_opt,mol_3749_solvent_opt,50,40,288.15,0.7714279915309099,Phenylphosphonic acid,n-propanol
3750.0,CN1CCN(C(=O)O[C@H]2c3nccnc3C(=O)N2c2ccc(Cl)cn2)CC1,CCCO,mol_3750_solute_opt,mol_3750_solvent_opt,50,32,288.15,-2.7577064479551585,Eszopiclone,n-propanol
3751.0,O=[N+]([O-])c1cccc2c([N+](=O)[O-])cccc12,CCCO,mol_3751_solute_opt,mol_3751_solvent_opt,50,40,273.15,-3.5285150359966755,"1,5-dinitro-naphthalen",n-propanol
3752.0,O=C(O)c1cc(O)c(O)c(O)c1,CCCO,mol_3752_solute_opt,mol_3752_solvent_opt,50,33,293.15,-0.3384692258167027,Gallic acid,n-propanol
3753.0,COc1cc(-c2cc(-c3ccc(Br)cc3)[nH]c(=O)c2C#N)ccc1O,CCCO,mol_3753_solute_opt,mol_3753_solvent_opt,50,32,298.15,-1.996439358792384,"6-(4-bromophenyl)-4-(4-hydroxy-3-methoxyphenyl)-2-oxo-1,2-dihydropyridine-3-carbonitrile",n-propanol
3754.0,COc1cc(-c2cc(-c3ccc(Cl)cc3)[nH]c(=O)c2C#N)ccc1O,CCCO,mol_3754_solute_opt,mol_3754_solvent_opt,50,34,298.15,-1.9775686998447304,"6-(4-chlorophenyl)-4-(4-hydroxy-3-methoxyphenyl)-2-oxo-1,2-dihydropyridine-3-carbonitrile",n-propanol
3755.0,COc1cc(-c2cc(-c3ccc(F)cc3)[nH]c(=O)c2C#N)ccc1O,CCCO,mol_3755_solute_opt,mol_3755_solvent_opt,50,36,298.15,-1.9390898013262603,"6-(4-fluorophenyl)-4-(4-hydroxy-3-methoxyphenyl)-2-oxo-1,2-dihydropyridine-3-carbonitrile",n-propanol
3756.0,COc1cc(-c2cc(-c3ccc(O)cc3)[nH]c(=O)c2C#N)ccc1O,CCCO,mol_3756_solute_opt,mol_3756_solvent_opt,50,32,298.15,-1.947778843732596,"4-(4-hydroxy-3-methoxyphenyl)-6-(4-hydroxyphenyl)-2-oxo-1,2-dihydropyridine-3 -carbonitrile",n-propanol
3757.0,COc1ccc(-c2cc(-c3ccc(O)c(OC)c3)c(C#N)c(=O)[nH]2)cc1,CCCO,mol_3757_solute_opt,mol_3757_solvent_opt,50,36,298.15,-2.010260146361509,"4-(4-hydroxy-3-methoxyphenyl)-6-(4-methoxyphenyl)-2-oxo-1,2-dihydropyridine-3-carbonitrile",n-propanol
3758.0,O=C(O)/C=C/c1ccc(O)c(O)c1,CCCO,mol_3758_solute_opt,mol_3758_solvent_opt,50,36,293.15,-0.9137387312932822,Caffeic acid,n-propanol
3759.0,Cc1cnc(N)s1,CCCO,mol_3759_solute_opt,mol_3759_solvent_opt,50,42,278.15,-0.2827043422100038,2-amino-5-methylthiazole,n-propanol
3760.0,O=Cc1ccc(O)cc1,CCCO,mol_3760_solute_opt,mol_3760_solvent_opt,50,37,278.15,-0.1172458985677054,4-hydroxybenzaldehyde,n-propanol
3761.0,FC(F)(F)c1cccnc1Cl,CCCO,mol_3761_solute_opt,mol_3761_solvent_opt,50,42,273.15,0.029329956938354,2-chloro-3-(trifluoromethyl)pyridine,n-propanol
3762.0,O=C(O)CNC(=O)c1ccccc1,CCCO,mol_3762_solute_opt,mol_3762_solvent_opt,50,36,298.15,-0.9256704384236392,Hippuric acid,n-propanol
3763.0,Cc1cc(N)n(-c2ccccc2)n1,CCCO,mol_3763_solute_opt,mol_3763_solvent_opt,50,34,283.15,0.0105972295643587,5-amino-3-methyl-1-phenylpyrazole,n-propanol
3764.0,CCN(CC)CC(=O)Nc1c(C)cccc1C,CCCO,mol_3764_solute_opt,mol_3764_solvent_opt,50,27,292.15,-1.064334320460939,Lidocaine,n-propanol
3765.0,O=C(c1ccccc1)C(O)c1ccccc1,CCCO,mol_3765_solute_opt,mol_3765_solvent_opt,50,32,283.15,-1.9769090087516368,Benzoin,n-propanol
3766.0,NCCCCCCN,CCCO,mol_3766_solute_opt,mol_3766_solvent_opt,50,39,278.15,0.7946567415768455,"1,6-hexanediamine",n-propanol
3767.0,Cc1occc(=O)c1O,CCCO,mol_3767_solute_opt,mol_3767_solvent_opt,50,44,288.15,-1.0203824903056176,Maltol,n-propanol
3768.0,Cc1c(N)c(=O)n(-c2ccccc2)n1C,CCCO,mol_3768_solute_opt,mol_3768_solvent_opt,50,34,299.05,0.5482286786111941,4-aminoantipyrine,n-propanol