pair_id,SMILES_Solute,SMILES_Solvent,Solute_name,Solvent_name,Total_conformers,Filtered_conformers,Temperature_K,LogS,Compound_Name,Solvent
3896.0,CC(=O)Nc1ccccc1[N+](=O)[O-],CCCO,mol_3896_solute_opt,mol_3896_solvent_opt,50,39,278.15,-0.7526378988049383,o-nitroacetanilide,n-propanol
3897.0,COc1cc2c(cc1OC)C(=O)CC2,CCCO,mol_3897_solute_opt,mol_3897_solvent_opt,50,37,283.15,-0.899307031742211,"5,6-dimethoxy-1-indanone",n-propanol
3898.0,Cc1cc(Cl)cc(C(=O)O)c1N,CCCO,mol_3898_solute_opt,mol_3898_solvent_opt,50,40,278.15,-1.1525152936806264,2-amino-5-chloro-3-methylbenzoic acid,n-propanol
3899.0,O=C(O)CNCc1ccccc1,CCCO,mol_3899_solute_opt,mol_3899_solvent_opt,50,39,283.15,-2.5388357710049103,N-benzylglycine,n-propanol
3900.0,Nc1cccc(S(=O)(=O)c2cccc(N)c2)c1,CCCO,mol_3900_solute_opt,mol_3900_solvent_opt,50,27,283.15,-1.717049995860373,"3,3′-diaminodiphenyl sulfone",n-propanol
3901.0,CSCCC(NC(C)=O)C(=O)O,CCCO,mol_3901_solute_opt,mol_3901_solvent_opt,50,39,283.15,-0.3641600222262368,N-acetyl-DL-methionine,n-propanol
3902.0,Cc1c(N)cccc1C(=O)O,CCCO,mol_3902_solute_opt,mol_3902_solvent_opt,50,41,288.15,-1.4818303924227598,3-amino-2-methylbenzoic acid,n-propanol
3903.0,O=C(O)COc1ccc(Cl)cc1,CCCO,mol_3903_solute_opt,mol_3903_solvent_opt,50,40,283.15,-0.4512347534565563,4-chlorophenoxyacetic acid,n-propanol
3904.0,O=C(O)c1cccc(C(=O)O)n1,CCCO,mol_3904_solute_opt,mol_3904_solvent_opt,50,37,278.15,-1.3734651698343976,"2,6-pyridinedicarboxylic acid",n-propanol
3905.0,CC(C)(C)OC(=O)N1CCC[C@H]1C(=O)O,CCCO,mol_3905_solute_opt,mol_3905_solvent_opt,50,32,283.15,0.1487388064659607,Boc-L-proline,n-propanol
3906.0,Nc1nc(=O)[nH]cc1F,CCCO,mol_3906_solute_opt,mol_3906_solvent_opt,50,38,283.15,-2.522306476224386,5-fluorocytosine,n-propanol
3907.0,CNC(=O)c1cc(Oc2ccc(N)cc2)ccn1,CCCO,mol_3907_solute_opt,mol_3907_solvent_opt,50,35,278.15,-1.1228148523337742,4-[2-(n-methylcarbamyl)-4-pyridyloxy]aniline,n-propanol
3908.0,O=C(N[C@H](C(=O)O)c1ccccc1)OCc1ccccc1,CCCO,mol_3908_solute_opt,mol_3908_solvent_opt,50,37,283.15,-0.7142062494544942,N-carbobenzoxy-L-2-phenylglycine,n-propanol
3909.0,Nc1cccc(C(=O)O)c1,CCCO,mol_3909_solute_opt,mol_3909_solvent_opt,50,42,283.15,-1.1128280286415355,M-aminobenzoic acid,n-propanol
3910.0,O=C(O)c1cccc([N+](=O)[O-])c1O,CCCO,mol_3910_solute_opt,mol_3910_solvent_opt,50,40,278.15,-0.2840473656804274,3-nitrosalicylic acid,n-propanol
3911.0,COC(=O)c1sccc1S(=O)(=O)NC(=O)Nc1nc(C)nc(OC)n1,CCCO,mol_3911_solute_opt,mol_3911_solvent_opt,50,47,278.15,-3.091448716808814,Thifensulfuron methyl,n-propanol
3912.0,CC(C)(Oc1ccc(C2CC2(Cl)Cl)cc1)C(=O)O,CCCO,mol_3912_solute_opt,mol_3912_solvent_opt,50,36,278.15,0.0469932804959278,Ciprofibrate,n-propanol
3913.0,CNC(=O)c1cc(Oc2ccc(NC(=O)Nc3ccc(Cl)c(C(F)(F)F)c3)cc2)ccn1,CCCO,mol_3913_solute_opt,mol_3913_solvent_opt,50,24,273.15,-1.98613394783814,Sorafenib,n-propanol
3914.0,O=C1CCc2cc(OCCCCc3nnnn3C3CCCCC3)ccc2N1,CCCO,mol_3914_solute_opt,mol_3914_solvent_opt,50,31,273.15,-2.551027499889165,Cilostazol,n-propanol
3915.0,COCCOc1ccccc1S(=O)(=O)NC(=O)Nc1nc(OC)nc(OC)n1,CCCO,mol_3915_solute_opt,mol_3915_solvent_opt,50,45,278.15,-1.631641256927112,Cinosulfuron,n-propanol
3916.0,Cn1c([N+](=O)[O-])cnc1N1CCN(S(C)(=O)=O)C1=O,CCCO,mol_3916_solute_opt,mol_3916_solvent_opt,50,42,293.2,-2.321796509187668,Satranidazole,n-propanol
3917.0,C#C[C@]1(O)C=C[C@H]2[C@@H]3CCC4=CC(=O)CC[C@@H]4[C@H]3CC[C@@]21CC,CCCO,mol_3917_solute_opt,mol_3917_solvent_opt,50,29,283.15,-1.292518623481587,Gestodene,n-propanol
3918.0,O=C(NC(=O)c1c(F)cccc1F)Nc1ccc(Oc2ccc(C(F)(F)F)cc2Cl)cc1F,CCCO,mol_3918_solute_opt,mol_3918_solvent_opt,50,34,278.15,-0.3487252403677263,Flufenoxuron,n-propanol
3919.0,CSc1nc2cc(Oc3cccc(Cl)c3Cl)c(Cl)cc2[nH]1,CCCO,mol_3919_solute_opt,mol_3919_solvent_opt,50,39,278.15,-0.9015052501638464,Triclabendazole,n-propanol
3920.0,COc1cc(C=O)cc(OC)c1OC,CCCO,mol_3920_solute_opt,mol_3920_solvent_opt,50,42,278.15,-1.156426624772282,"3,4,5-trimethoxybenzaldehyde",n-propanol
3921.0,COC(=O)CC[C@H](N)C(=O)O,CCCO,mol_3921_solute_opt,mol_3921_solvent_opt,50,37,283.15,-3.728514306875593,L-glutamic acid 5-methyl ester,n-propanol
3922.0,Nc1cnc(Cl)cn1,CCCO,mol_3922_solute_opt,mol_3922_solvent_opt,50,44,278.15,-1.973889360433631,5-chloropyrazin-2-amine,n-propanol
3923.0,Cc1ccc(Nc2nccc(N(C)c3ccc4c(C)n(C)nc4c3)n2)cc1S(N)(=O)=O,CCCO,mol_3923_solute_opt,mol_3923_solvent_opt,50,38,288.15,-3.873442598196469,Pazopanib,n-propanol
3924.0,O=C(O)CNC(=O)OCc1ccccc1,CCCO,mol_3924_solute_opt,mol_3924_solvent_opt,50,34,283.15,-0.4410455279735285,N-carbobenzyloxyglycine,n-propanol
3925.0,CC(C)(C)OC(=O)N[C@@H](CC(N)=O)C(=O)O,CCCO,mol_3925_solute_opt,mol_3925_solvent_opt,50,36,283.15,-1.845631611146572,Boc-L-asparagine,n-propanol
3926.0,O=C(O)c1ccc(-c2ccccc2)cc1,CCCO,mol_3926_solute_opt,mol_3926_solvent_opt,50,40,293.15,-1.2425873916579695,4-biphenylcarboxylic acid,n-propanol
3927.0,CCOc1ccc(C=O)cc1O,CCCO,mol_3927_solute_opt,mol_3927_solvent_opt,50,33,283.15,-1.1860116232902786,Iso-ethylvanillin,n-propanol
3928.0,CCOc1ccc(NC(C)=O)cc1,CCCO,mol_3928_solute_opt,mol_3928_solvent_opt,50,34,283.15,-0.8372604157197218,Phenacetin,n-propanol
3929.0,NC(=O)C[C@H](NC(=O)OCc1ccccc1)C(=O)O,CCCO,mol_3929_solute_opt,mol_3929_solvent_opt,50,33,283.15,-2.4149839797696595,N-benzyloxycarbonyl-L-asparagine,n-propanol
3930.0,CCc1nc(N)nc(N)c1-c1ccc(Cl)cc1,CCCO,mol_3930_solute_opt,mol_3930_solvent_opt,50,31,278.15,-2.014612783241334,Pyrimethamine,n-propanol
3931.0,C=CC(=O)NC(C)(C)CC(C)=O,CCCO,mol_3931_solute_opt,mol_3931_solvent_opt,50,28,272.15,0.4760246054218972,Diacetone acrylamide,n-propanol
3932.0,CC(=O)Nc1ccc([N+](=O)[O-])cc1,CCCO,mol_3932_solute_opt,mol_3932_solvent_opt,50,39,278.15,-1.544232895868264,p-Nitroacetanilide,n-propanol
3933.0,COC(=O)C1=C(C)NC(C)=C(C(=O)OCC(C)C)C1c1ccccc1[N+](=O)[O-],CCCO,mol_3933_solute_opt,mol_3933_solvent_opt,50,30,278.15,-1.3003015610611603,Nisoldipine,n-propanol
3934.0,CC(=O)OC(OC(C)=O)c1ccc([N+](=O)[O-])o1,CCCO,mol_3934_solute_opt,mol_3934_solvent_opt,50,38,278.15,-0.2093535940252518,2-(diacetoxymethyl)-5-nitrofuran,n-propanol
3935.0,O=C([O-])c1nc[nH]n1,CCCO,mol_3935_solute_opt,mol_3935_solvent_opt,50,44,278.55,-1.7311287368273802,"Methyl 1,2,4-triazole-3-carboxylate",n-propanol
3936.0,CS(N)(=O)=O,CCCO,mol_3936_solute_opt,mol_3936_solvent_opt,50,43,283.16,-0.7662708530796751,Methanesulfonamide,n-propanol
3937.0,O=C(O)c1cc([N+](=O)[O-])ccc1O,CCCO,mol_3937_solute_opt,mol_3937_solvent_opt,50,38,278.15,-0.4922427565106947,5-nitroSalicylic acid,n-propanol
3938.0,O=c1cc(-c2ccccc2)oc2c1ccc1ccccc12,CCCO,mol_3938_solute_opt,mol_3938_solvent_opt,50,34,273.2,-1.9764905438255391,α-Naphthoflavone,n-propanol
3939.0,O=C(N[C@@H](Cc1c[nH]c2ccccc12)C(=O)O)OCc1ccccc1,CCCO,mol_3939_solute_opt,mol_3939_solvent_opt,50,33,283.15,-0.4058785904669691,N-benzyloxycarbonyl-L-tryptophan,n-propanol
3940.0,OCCOc1ccc2ccccc2c1-c1c(OCCO)ccc2ccccc12,CCCO,mol_3940_solute_opt,mol_3940_solvent_opt,50,32,283.15,-1.822754501897866,"2,2’-bis(2-hydroxyethoxy)-1,1′-binaphthalene",n-propanol
3941.0,CC(C)(C)OC(=O)N[C@@H](CCC(N)=O)C(=O)O,CCCO,mol_3941_solute_opt,mol_3941_solvent_opt,50,32,283.15,-0.0875997292923582,Boc-L-glutamine,n-propanol
3942.0,O=C1c2ccccc2-c2ccc(Br)cc21,CCCO,mol_3942_solute_opt,mol_3942_solvent_opt,50,38,278.15,-2.088745971339499,2-bromo-9-fluorenone,n-propanol
3943.0,NC(=O)Nc1ccccc1,CCCO,mol_3943_solute_opt,mol_3943_solvent_opt,50,37,283.15,-0.559095632625184,1-phenylurea,n-propanol
3944.0,COc1cc(C(=O)O)ccc1O,CCCO,mol_3944_solute_opt,mol_3944_solvent_opt,50,35,283.15,-0.6750816039193963,Vanillic acid,n-propanol
3945.0,Nc1ccccn1,CCCO,mol_3945_solute_opt,mol_3945_solvent_opt,50,37,273.15,0.6910820201809221,2-aminopyridine,n-propanol
3946.0,CC(C)(C)NCC(O)c1ccc(O)c(CO)c1,CCCO,mol_3946_solute_opt,mol_3946_solvent_opt,50,33,283.15,-1.541469511870005,Salbutamol,n-propanol
3947.0,O=C(O)c1ccc(Br)cn1,CCCO,mol_3947_solute_opt,mol_3947_solvent_opt,50,37,278.15,-0.8519595216490436,5-bromo-2-pyridinecarboxylic acid,n-propanol
3948.0,CCCc1nc(C(C)(C)O)c(C(=O)OCC)n1Cc1ccc(-c2ccccc2-c2nnnn2C(c2ccccc2)(c2ccccc2)c2ccccc2)cc1,CCCO,mol_3948_solute_opt,mol_3948_solvent_opt,50,23,278.15,-2.7081299864531583,N-trityl olmesartan ethyl ester,n-propanol
3949.0,O=C(O)c1cc([N+](=O)[O-])cc([N+](=O)[O-])c1,CCCO,mol_3949_solute_opt,mol_3949_solvent_opt,50,34,283.15,-0.6238195405184925,"3,5-dinitrobenzoic acid",n-propanol
3950.0,CC1(C)[C@@H](O)CC[C@]2(C)[C@H]3C(=O)C=C4[C@@H]5C[C@@](C)(C(=O)O)CC[C@]5(C)CC[C@@]4(C)[C@]3(C)CC[C@@H]12,CCCO,mol_3950_solute_opt,mol_3950_solvent_opt,50,21,278.15,-0.7438910723910723,18β-glycyrrhetinic acid,n-propanol
3951.0,N#Cc1ccncc1,CCCO,mol_3951_solute_opt,mol_3951_solvent_opt,50,42,278.15,-0.2249503954407654,4-cyanopyridine,n-propanol
3952.0,O=C(Nc1ccccc1)Nc1ccnc(Cl)c1,CCCO,mol_3952_solute_opt,mol_3952_solvent_opt,50,37,278.15,-0.6256387197327736,Forchlorfenuron,n-propanol
3953.0,C[C@H]1[C@H](OC(=O)CCC(=O)O)O[C@@H]2O[C@@]3(C)CC[C@H]4[C@H](C)CC[C@@H]1[C@@]24OO3,CCCO,mol_3953_solute_opt,mol_3953_solvent_opt,50,30,283.14,-0.9455863413686194,Artesunate,n-propanol
3954.0,Nc1cccc2ccncc12,CCCO,mol_3954_solute_opt,mol_3954_solvent_opt,50,40,278.15,-1.3105015055167608,8-isoquinolinamine,n-propanol
3955.0,CC(=O)c1ccc(O)cc1O,CCCO,mol_3955_solute_opt,mol_3955_solvent_opt,50,32,293.15,0.2020387775168537,"2′,4′-dihydroxyacetophenone",n-propanol
3956.0,Nc1ccnc(=O)[nH]1,CCCO,mol_3956_solute_opt,mol_3956_solvent_opt,50,45,288.15,-2.5325577096705763,Cytosine,n-propanol
3957.0,O=c1cnc(Br)c[nH]1,CCCO,mol_3957_solute_opt,mol_3957_solvent_opt,50,41,278.15,-1.2837748428319713,2-bromo-5-hydroxypyrazine,n-propanol
3958.0,Nc1cnc(Br)cn1,CCCO,mol_3958_solute_opt,mol_3958_solvent_opt,50,43,278.15,-1.3183415402258143,2-amino-5-bromopyrazine,n-propanol
3959.0,CC(=O)Oc1cc(C)c(OC(C)=O)c2ccccc12,CCCO,mol_3959_solute_opt,mol_3959_solvent_opt,50,36,283.1,-1.4457446855385605,Menadiol diacetate,n-propanol
3960.0,NC(=O)CC[C@H](N)C(=O)O,CCCO,mol_3960_solute_opt,mol_3960_solvent_opt,50,39,283.15,-2.959216638148322,L-glutamine,n-propanol
3961.0,c1ccc(-c2ccc(C(c3ccccc3)n3ccnc3)cc2)cc1,CCCO,mol_3961_solute_opt,mol_3961_solvent_opt,50,39,283.12,-1.2870899617083535,Bifonazole,n-propanol
3962.0,c1ccc(-n2c3ccccc3c3ccccc32)cc1,CCCO,mol_3962_solute_opt,mol_3962_solvent_opt,50,38,278.15,-1.3917916792438498,9-phenylcarbazole,n-propanol
3963.0,Nc1ccc(Br)nn1,CCCO,mol_3963_solute_opt,mol_3963_solvent_opt,50,44,278.15,-1.3660962505110323,3-amino-6-bromopyridazine,n-propanol
3964.0,O=C(Nc1ccncc1)c1cc(C(=O)Nc2ccncc2)cc(C(=O)Nc2ccncc2)c1,CCCO,mol_3964_solute_opt,mol_3964_solvent_opt,50,21,283.15,-2.532188384552656,"N1,N3,N5-tris(pyridin-4-yl)benzene-1,3,5-tricarboxamide (TPBTC)",n-propanol
3965.0,Cc1ccc2cc(Br)ccc2n1,CCCO,mol_3965_solute_opt,mol_3965_solvent_opt,50,42,278.15,-1.528552931116841,6-bromo-2-methylquinoline,n-propanol
3966.0,NC(=O)c1ccncc1,CCCO,mol_3966_solute_opt,mol_3966_solvent_opt,50,38,278.15,-0.5191290414972332,Isonicotinamide,n-propanol
3967.0,CC(O)(CS(=O)(=O)c1ccc(F)cc1)C(=O)Nc1ccc(C#N)c(C(F)(F)F)c1,CCCO,mol_3967_solute_opt,mol_3967_solvent_opt,50,32,278.15,-2.3922294450033497,Bicalutamide,n-propanol
3968.0,O=S1(=O)OC(c2ccc(O)cc2)(c2ccc(O)cc2)c2ccccc21,CCCO,mol_3968_solute_opt,mol_3968_solvent_opt,50,46,278.15,-3.464885528087779,Phenol red,n-propanol
3969.0,O=C(O)/C=C/c1cccc(O)c1,CCCO,mol_3969_solute_opt,mol_3969_solvent_opt,50,40,293.15,-0.1590476118150703,trans-3-hydroxycinnamic acid,n-propanol
3970.0,O=C(N[C@@H](CO)C(=O)O)OCc1ccccc1,CCCO,mol_3970_solute_opt,mol_3970_solvent_opt,50,31,283.15,-0.1517672444660434,N-benzyloxycarbonyl-L-serine,n-propanol
3971.0,Oc1ccc(C2(c3ccc(O)cc3)CCCCC2)cc1,CCCO,mol_3971_solute_opt,mol_3971_solvent_opt,50,34,288.15,-0.3524316412032366,Bisphenol Z (BPZ),n-propanol
3972.0,Cc1cccc(C(=O)O)c1,CCCO,mol_3972_solute_opt,mol_3972_solvent_opt,50,40,299.55,0.4119202983477454,m-methylbenzoic acid,n-propanol
3973.0,COC(=O)c1ccnc(N)c1,CCCO,mol_3973_solute_opt,mol_3973_solvent_opt,50,40,278.15,-1.2394923819781378,Methyl 2-aminopyridine-4-carboxylate,n-propanol
3974.0,CC(C)C[C@H](N)C(=O)O,CCCO,mol_3974_solute_opt,mol_3974_solvent_opt,50,36,283.15,-2.8825286304448623,L-leucine,n-propanol
3975.0,CC(C)[C@H](N)C(=O)O,CCCO,mol_3975_solute_opt,mol_3975_solvent_opt,50,38,283.15,-3.693244719797354,L-valine,n-propanol
3976.0,CC1COC(Cn2cncn2)(c2ccc(Oc3ccc(Cl)cc3)cc2Cl)O1,CCCO,mol_3976_solute_opt,mol_3976_solvent_opt,50,36,278.15,-1.3318988570258845,Difenoconazole,n-propanol
3977.0,Oc1ccccc1C=Nc1c(F)cccc1F,CCCO,mol_3977_solute_opt,mol_3977_solvent_opt,50,38,273.15,-1.058756144644686,"2-[[(2,6-difluorophenyl)imino]methyl]phenol",n-propanol
3978.0,c1ccc2c(c1)Cc1ccccc1-2,CCCO,mol_3978_solute_opt,mol_3978_solvent_opt,50,41,278.15,-1.1488903095796736,Fluorene,n-propanol
3979.0,O=C(O)CNC(=O)C(=O)NCC(=O)O,CCCO,mol_3979_solute_opt,mol_3979_solvent_opt,50,36,293.15,-4.102996463195191,"N,N′-oxalyldiglycine",n-propanol
3980.0,O=C(O)c1cccc(O)c1,CCCO,mol_3980_solute_opt,mol_3980_solvent_opt,50,37,278.15,0.0878362394283753,m-Hydroxybenzoic acid,n-propanol
3981.0,O=C1C(CCS(=O)c2ccccc2)C(=O)N(c2ccccc2)N1c1ccccc1,CCCO,mol_3981_solute_opt,mol_3981_solvent_opt,50,32,283.15,-1.5726965381847844,Sulfinpyrazone,n-propanol
3982.0,N[C@@H](Cc1ccccc1)C(=O)O,CCCO,mol_3982_solute_opt,mol_3982_solvent_opt,50,39,283.15,-3.4175437670870803,L-phenylalanine,n-propanol
3983.0,OC[C@@H](O)CN1CCN(c2ccccc2)CC1,CCCO,mol_3983_solute_opt,mol_3983_solvent_opt,50,35,283.1,-2.0111323713454894,Levodropropizine,n-propanol
3984.0,Nc1nonc1-c1no[n+]([O-])c1-c1nonc1N,CCCO,mol_3984_solute_opt,mol_3984_solvent_opt,50,37,283.15,-1.4147890021975869,"3,4-bis(4′-aminofurazan-3′-yl)furoxan",n-propanol
3985.0,Nc1ncnc2c1ncn2CCOCP(=O)(O)O,CCCO,mol_3985_solute_opt,mol_3985_solvent_opt,50,34,278.15,-2.530603890638746,Adefovir,n-propanol
3986.0,NC(=O)CS(=O)C(c1ccccc1)c1ccccc1,CCCO,mol_3986_solute_opt,mol_3986_solvent_opt,50,37,284.5,-1.869499717030917,Modafinil,n-propanol
3987.0,O=c1ccc2cc(O)c(O)cc2o1,CCCO,mol_3987_solute_opt,mol_3987_solvent_opt,50,41,273.15,-0.1319957296065824,Esculetin,n-propanol
3988.0,COc1ccc(C(=O)c2ccc(OC)cc2)cc1,CCCO,mol_3988_solute_opt,mol_3988_solvent_opt,50,38,293.15,-1.8164508077172816,"4,4′-dimethoxybenzophenone",n-propanol
3989.0,CC(C)(N)C(=O)O,CCCO,mol_3989_solute_opt,mol_3989_solvent_opt,50,43,283.15,-2.693186085204854,α-Aminoisobutyric Acid,n-propanol
3990.0,CC(=O)N[C@H](C(=O)O)C(C)C,CCCO,mol_3990_solute_opt,mol_3990_solvent_opt,50,33,283.15,-0.1968311576041417,N-acetyl-L-valine,n-propanol
3991.0,N#CCC(N)=O,CCCO,mol_3991_solute_opt,mol_3991_solvent_opt,50,41,283.15,-1.330022491728254,2-cyanoacetamide,n-propanol
3992.0,COc1ccc(/C=C/C(=O)O)cc1OC,CCCO,mol_3992_solute_opt,mol_3992_solvent_opt,50,34,283.15,-1.6702740703529089,"3,4-dimethoxycinnamic acid",n-propanol
3993.0,NNC(=O)c1ccccc1,CCCO,mol_3993_solute_opt,mol_3993_solvent_opt,50,37,283.15,-0.7537965815161103,Benzhydrazide,n-propanol
3994.0,NNC(=O)c1ccccc1O,CCCO,mol_3994_solute_opt,mol_3994_solvent_opt,50,42,283.15,-0.992180162327722,2-Hydroxybenzohydrazide,n-propanol
3995.0,COC(=O)c1cc(OC)c2c(c1-c1c(C(=O)OC)cc(OC)c3c1OCO3)OCO2,CCCO,mol_3995_solute_opt,mol_3995_solvent_opt,50,32,293.15,-3.111898095815272,Bifendate,n-propanol
3996.0,OCC1(O)OC[C@@H](O)[C@@H](O)[C@H]1O,CCCO,mol_3996_solute_opt,mol_3996_solvent_opt,50,38,283.15,-1.6911518878560254,D-psicose,n-propanol
3997.0,Oc1ccccc1C=N[C@@H]1CCCC[C@H]1N=Cc1ccccc1O,CCCO,mol_3997_solute_opt,mol_3997_solvent_opt,50,29,273.15,-1.864549682363699,"Bis(salicylidene)-trans-1,2-cyclo-hexanediamine",n-propanol
3998.0,CC(C)[C@H](NC(=O)OCC1c2ccccc2-c2ccccc21)C(=O)O,CCCO,mol_3998_solute_opt,mol_3998_solvent_opt,50,30,283.15,-0.7130199827151529,Fmoc-L-valine,n-propanol
3999.0,CCCCN(CCCC)c1ccc(C(=O)c2ccccc2C(=O)O)c(O)c1,CCCO,mol_3999_solute_opt,mol_3999_solvent_opt,50,29,283.15,-0.6449006177131217,2-[4-(dibutylamino)-2-hydroxybenzoyl] benzoic acid,n-propanol
4000.0,c1ccc2[nH]cnc2c1,CCCO,mol_4000_solute_opt,mol_4000_solvent_opt,50,40,283.15,0.0690146847065424,Benzimidazole,n-propanol
4001.0,CC[C@H](C)[C@H](N)C(=O)O,CCCO,mol_4001_solute_opt,mol_4001_solvent_opt,50,35,283.15,-2.5981170850202533,L-isoleucine,n-propanol
4002.0,Cc1cc(Cl)ccc1OCC(=O)O,CCCO,mol_4002_solute_opt,mol_4002_solvent_opt,50,34,278.15,0.293866223713992,2-methyl-4-chlorophenoxyacetic acid,n-propanol
4003.0,Cc1cccc2sc(NN)nc12,CCCO,mol_4003_solute_opt,mol_4003_solvent_opt,50,40,273.15,-1.8034087096614373,2-hydrazino-4-methylbenzothiazole,n-propanol
4004.0,CCC[C@@H]1CC(=O)N([C@@H](CC)C(N)=O)C1,CCCO,mol_4004_solute_opt,mol_4004_solvent_opt,50,27,278.15,0.3335518948246227,Brivaracetam,n-propanol
4005.0,C[C@@H](Oc1ccc(Oc2nc3ccc(Cl)cc3o2)cc1)C(=O)N(C)c1ccccc1F,CCCO,mol_4005_solute_opt,mol_4005_solvent_opt,50,30,278.15,-1.1878455987148064,Metamifop,n-propanol
4006.0,Cc1nc2n(c(=O)c1CCN1CCC(c3noc4cc(F)ccc34)CC1)CCCC2O,CCCO,mol_4006_solute_opt,mol_4006_solvent_opt,50,32,288.15,-3.024782191266085,Paliperidone,n-propanol
4007.0,CC(C(=O)O)c1ccc(CC2CCCC2=O)cc1,CCCO,mol_4007_solute_opt,mol_4007_solvent_opt,50,26,283.15,-0.1244545772510669,Loxoprofen,n-propanol
4008.0,O=C(O)c1ccc(Cl)cc1Cl,CCCO,mol_4008_solute_opt,mol_4008_solvent_opt,50,40,273.15,-0.3073762267156585,"2,4-dichlorobenzoic acid",n-propanol
4009.0,Cn1nccc1O,CCCO,mol_4009_solute_opt,mol_4009_solvent_opt,50,42,278.15,0.0727340206097791,5-hydroxy-1-methylpyrazole,n-propanol
4010.0,Nc1ncccn1,CCCO,mol_4010_solute_opt,mol_4010_solvent_opt,50,37,272.65,-0.7071996029440389,2-aminopyrimidine,n-propanol
4011.0,C=C(C)[C@@H]1CC[C@]2(C(=O)O)CC[C@]3(C)[C@H](CC[C@@H]4[C@@]5(C)CCC(=O)C(C)(C)[C@@H]5CC[C@]43C)[C@@H]12,CCCO,mol_4011_solute_opt,mol_4011_solvent_opt,50,28,278.15,-1.0018532688578203,Betulonic acid,n-propanol
4012.0,Clc1cc(Cl)cc(Cl)c1,CCCO,mol_4012_solute_opt,mol_4012_solvent_opt,50,45,273.15,-0.5322819016578366,"1,3,5-trichlorobenzene",n-propanol
4013.0,O=S(=O)(c1ccc(O)cc1)c1ccc(O)cc1,CCCO,mol_4013_solute_opt,mol_4013_solvent_opt,50,31,278.15,-2.605577794004729,"4,4′-dihydroxydiphenylsulfone",n-propanol
4014.0,CC(=O)Oc1ccccc1C(=O)O,CCCO,mol_4014_solute_opt,mol_4014_solvent_opt,50,35,276.36,-0.6443531194693377,Aspirin,n-propanol
4015.0,O=C(O)c1ccccc1,CCCO,mol_4015_solute_opt,mol_4015_solvent_opt,50,40,279.06,0.2613569831400247,Benzoic acid,n-propanol
4016.0,CC(C)(C)OC(=O)N[C@@H](CC(=O)O)Cc1cc(F)c(F)cc1F,CCCO,mol_4016_solute_opt,mol_4016_solvent_opt,50,29,280.15,-0.360109941153262,"Boc-(R)-3-amino-4-(2,4,5-trifluorophenyl)butanoic acid",n-propanol
4017.0,CC(C)(C)c1ccc(OP2OCC3(CO2)COP(Oc2ccc(C(C)(C)C)cc2C(C)(C)C)OC3)c(C(C)(C)C)c1,CCCO,mol_4017_solute_opt,mol_4017_solvent_opt,50,19,303.15,-2.199296642414991,Antioxidant 626,n-propanol
4018.0,CS(=O)(=O)c1ccc(C=O)cc1,CCCO,mol_4018_solute_opt,mol_4018_solvent_opt,50,39,283.15,-2.13591021132004,4-(methylsulfonyl)benzaldehyde,n-propanol
4019.0,CCOC(=O)c1ccc(N)cc1,CCCO,mol_4019_solute_opt,mol_4019_solvent_opt,50,35,283.15,-0.2053163654581755,Benzocaine,n-propanol
4020.0,O=C1NC23NC(=O)NC2(N1)C(=O)NC3=O,CCCO,mol_4020_solute_opt,mol_4020_solvent_opt,50,43,273.15,-3.456733110744818,"3,7,9,11-Tetraoxo-2,4,6,8,10-pentaaza[3.3.3] Propellane (TOPAP)",n-propanol
4021.0,O=C(O)/C=C/c1ccc(O)cc1,CCCO,mol_4021_solute_opt,mol_4021_solvent_opt,50,41,293.15,-0.3353513611736345,p-coumaric acid,n-propanol
4022.0,COC(=O)[C@H](N)c1ccc(O)cc1,CCCO,mol_4022_solute_opt,mol_4022_solvent_opt,50,36,283.13,-1.8964453628281903,Methyl D-(−)-4-hydroxy-phenylglycinate,n-propanol
4023.0,CC(=O)c1ccc(S(C)(=O)=O)cc1,CCCO,mol_4023_solute_opt,mol_4023_solvent_opt,50,36,278.15,-0.8455842239388583,4-methylsulfonylacetophenone,n-propanol
4024.0,COC(=O)c1c(C)cc(O)c(C)c1O,CCCO,mol_4024_solute_opt,mol_4024_solvent_opt,50,36,283.15,0.0132412817874948,Veramoss,n-propanol
4025.0,CCOC(=O)N1CCC(=C2c3ccc(Cl)cc3CCc3cccnc32)CC1,CCCO,mol_4025_solute_opt,mol_4025_solvent_opt,50,35,283.16,-0.6047140792766548,Loratadine,n-propanol
4026.0,O=[N+]([O-])N1C2C3N([N+](=O)[O-])C1C1N([N+](=O)[O-])C(C(N1[N+](=O)[O-])N3[N+](=O)[O-])N2[N+](=O)[O-],CCCO,mol_4026_solute_opt,mol_4026_solvent_opt,50,26,278.15,-2.6371464412441066,ε-CL-20,n-propanol