pair_id,SMILES_Solute,SMILES_Solvent,Solute_name,Solvent_name,Total_conformers,Filtered_conformers,Temperature_K,LogS,Compound_Name,Solvent
5488.0,COc1cccc(C(=O)O)c1OC,CC#N,mol_5488_solute_opt,mol_5488_solvent_opt,50,32,278.15,-0.6743681401803042,"2,3-dimethoxybenzoic acid",acetonitrile
5489.0,C=C1CCN([C@H](C)[C@](O)(Cn2cncn2)c2ccc(F)cc2F)CC1,CC#N,mol_5489_solute_opt,mol_5489_solvent_opt,50,17,288.15,0.2643298539710346,Efinaconazole,acetonitrile
5490.0,O=[N+]([O-])c1cc([N+](=O)[O-])c(-c2nnc(-c3nnc(-c4c([N+](=O)[O-])cc([N+](=O)[O-])cc4[N+](=O)[O-])o3)o2)c([N+](=O)[O-])c1,CC#N,mol_5490_solute_opt,mol_5490_solvent_opt,50,19,293.15,-2.6371292046766444,"5,5′-bis(2,4,6-trinitrophenyl)-2,2′-bis(1,3,4-oxadiazole)",acetonitrile
5491.0,O=C(O)CCC(=O)c1ccc(-c2ccccc2)cc1,CC#N,mol_5491_solute_opt,mol_5491_solvent_opt,50,21,278.15,-2.265620719278437,Fenbufen,acetonitrile
5492.0,Cc1c(-c2ccccc2)oc2c(C(=O)O)cccc2c1=O,CC#N,mol_5492_solute_opt,mol_5492_solvent_opt,50,23,278.15,-2.386504641631263,3-methylflavone-8-carboxylic acid,acetonitrile
5493.0,O=C(c1ccccc1)c1ccc(Cl)cc1,CC#N,mol_5493_solute_opt,mol_5493_solvent_opt,50,29,278.15,-0.3669208859677343,4-chlorobenzophenone,acetonitrile
5494.0,O=c1c2ccccc2sc2ccc(Cl)cc12,CC#N,mol_5494_solute_opt,mol_5494_solvent_opt,50,25,289.15,-1.922749273718688,2-chlorothioxanthone (CTX),acetonitrile
5495.0,CC(N)=S,CC#N,mol_5495_solute_opt,mol_5495_solvent_opt,50,41,272.85,-0.006639188603284,Thioacetamide,acetonitrile
5496.0,C1=CONN=C1,CC#N,mol_5496_solute_opt,mol_5496_solvent_opt,50,38,293.15,-0.3268017731089159,Oxadiazine,acetonitrile
5497.0,Brc1cnc2[nH]ccc2c1,CC#N,mol_5497_solute_opt,mol_5497_solvent_opt,50,37,278.15,-1.359656813572176,5-bromo-7-azaindole,acetonitrile
5498.0,NC(=O)c1nc(F)cnc1O,CC#N,mol_5498_solute_opt,mol_5498_solvent_opt,50,37,293.15,-1.4567205510797976,Favipiravir,acetonitrile
5499.0,O=C1O[C@H](CO)[C@@H](O)[C@H](O)[C@H]1O,CC#N,mol_5499_solute_opt,mol_5499_solvent_opt,50,34,288.15,-2.642764914818303,"1,5-gluconolactone",acetonitrile
5500.0,O=C1CCCCCCCCCCC1,CC#N,mol_5500_solute_opt,mol_5500_solvent_opt,50,24,278.15,-0.0035457967543854,Cyclododecanone,acetonitrile
5501.0,COc1c(C(C)(C)C)cc([N+](=O)[O-])c(C)c1[N+](=O)[O-],CC#N,mol_5501_solute_opt,mol_5501_solvent_opt,50,21,278.15,-0.1450794781365842,"4-tert-butyl-2,6-dinitro-3-methoxytoluene",acetonitrile
5502.0,C=C1C[C@]23C[C@@]1(O)CC[C@H]2[C@@]12C=C[C@H](O)[C@@](C)(C(=O)O1)[C@H]2[C@@H]3C(=O)O,CC#N,mol_5502_solute_opt,mol_5502_solvent_opt,50,20,278.15,-0.7705963919978098,Gibberellin a3,acetonitrile
5504.0,CCCCC(=O)N(Cc1ccc(-c2ccccc2-c2nn[nH]n2)cc1)[C@H](C(=O)O)C(C)C,CC#N,mol_5504_solute_opt,mol_5504_solvent_opt,50,20,278.15,-1.8829589201355204,Valsartan,acetonitrile
5505.0,CC(=O)N[C@@H](CCC(N)=O)C(=O)O,CC#N,mol_5505_solute_opt,mol_5505_solvent_opt,50,26,283.15,-2.64937111920946,N-acetyl-L-glutamine,acetonitrile
5506.0,Nc1cc(Cl)ccc1[N+](=O)[O-],CC#N,mol_5506_solute_opt,mol_5506_solvent_opt,50,39,283.15,-0.2192220904204926,5-chloro-2-nitroaniline,acetonitrile
5507.0,Cc1ccc(CO)cc1,CC#N,mol_5507_solute_opt,mol_5507_solvent_opt,50,34,278.15,0.574752118044818,p-methylbenzyl alcohol,acetonitrile
5508.0,NC(=O)Cc1ccc(O)cc1,CC#N,mol_5508_solute_opt,mol_5508_solvent_opt,50,30,278.15,-1.7281903867403463,4-hydroxyphenylacetamide,acetonitrile
5509.0,CC1CCC(=O)C1=O,CC#N,mol_5509_solute_opt,mol_5509_solvent_opt,50,34,278.15,-0.1764323091898882,"3-methyl-1,2-cyclopentanedione",acetonitrile
5510.0,CCN(CC)C(=S)SSC(=S)N(CC)CC,CC#N,mol_5510_solute_opt,mol_5510_solvent_opt,50,16,273.15,-0.5746065186603085,Disulfiram,acetonitrile
5511.0,CN(CCOc1ccc(CC2SC(=O)NC2=O)cc1)c1ccccn1,CC#N,mol_5511_solute_opt,mol_5511_solvent_opt,50,21,283.15,-2.286764428329107,Rosiglitazone,acetonitrile
5512.0,CCCCCc1ccc2c(c1)C(=O)c1ccccc1C2=O,CC#N,mol_5512_solute_opt,mol_5512_solvent_opt,50,22,288.15,-1.2399294402049643,2-amyl anthraquinone,acetonitrile
5513.0,CCC[C@@H]1C[C@@H](C(=O)N[C@@H]([C@H]2O[C@H](SC)[C@H](O)[C@H]3OC(C)(C)O[C@H]32)[C@H](C)Cl)N(C)C1,CC#N,mol_5513_solute_opt,mol_5513_solvent_opt,50,15,273.15,-1.2013566383339729,"3,4-o-isopropylidene clindamycin",acetonitrile
5514.0,O=C[C@H](O)[C@H](O)[C@H](O)CO,CC#N,mol_5514_solute_opt,mol_5514_solvent_opt,50,38,283.15,-1.6779782860048071,D-ribose,acetonitrile
5515.0,CC(C)(Oc1ccc(CCNC(=O)c2ccc(Cl)cc2)cc1)C(=O)O,CC#N,mol_5515_solute_opt,mol_5515_solvent_opt,50,17,283.24,-2.659271387032001,Bezafibrate,acetonitrile
5517.0,O=C(O)c1cc([N+](=O)[O-])cc([N+](=O)[O-])c1O,CC#N,mol_5517_solute_opt,mol_5517_solvent_opt,50,32,278.15,-0.672332766086653,"3,5-dinitrosalicylic acid",acetonitrile
5518.0,CCCSc1nc(N[C@@H]2C[C@H]2c2ccc(F)c(F)c2)c2nnn([C@@H]3C[C@H](OCCO)[C@@H](O)[C@H]3O)c2n1,CC#N,mol_5518_solute_opt,mol_5518_solvent_opt,50,13,273.15,-1.765013872473597,Ticagrelor,acetonitrile
5519.0,c1cnc2[nH]ccc2c1,CC#N,mol_5519_solute_opt,mol_5519_solvent_opt,50,35,278.15,0.3824531791383155,7-azaindole,acetonitrile
5520.0,CC(C)(c1ccc(O)cc1)c1ccc(O)cc1,CC#N,mol_5520_solute_opt,mol_5520_solvent_opt,50,21,273.15,0.4861624233215791,Bisphenol A,acetonitrile
5521.0,O=C(Nc1ccccc1)c1ccccc1,CC#N,mol_5521_solute_opt,mol_5521_solvent_opt,50,18,274.15,-1.354365998529402,Benzanilide,acetonitrile
5522.0,O=C(O)Cc1ccc([N+](=O)[O-])cc1,CC#N,mol_5522_solute_opt,mol_5522_solvent_opt,50,37,283.15,-0.4189414810574573,4-nitrophenylacetic acid,acetonitrile
5523.0,CC(=O)Oc1ccccc1C(=O)Nc1ncc([N+](=O)[O-])s1,CC#N,mol_5523_solute_opt,mol_5523_solvent_opt,50,27,273.15,-1.7937284673902345,Nitazoxanide,acetonitrile
5524.0,CCOC(=O)C1(c2ccccc2)CCN(CCC(C#N)(c2ccccc2)c2ccccc2)CC1,CC#N,mol_5524_solute_opt,mol_5524_solvent_opt,50,14,278.15,-1.39232979661803,Diphenoxylate,acetonitrile
5525.0,CC1=NN(c2ccccc2)C(=O)C1,CC#N,mol_5525_solute_opt,mol_5525_solvent_opt,50,29,283.15,-0.8136953275315755,Edaravone,acetonitrile
5526.0,O=c1cc(CBr)c2ccccc2[nH]1,CC#N,mol_5526_solute_opt,mol_5526_solvent_opt,50,34,273.15,-2.804773855398472,4-(bromomethyl)-2(1H)-quinolinone,acetonitrile
5527.0,Nc1cccc(Cl)c1C(=O)O,CC#N,mol_5527_solute_opt,mol_5527_solvent_opt,50,29,278.15,-0.8346533798915845,2-amino-6-chlorobenzoic acid,acetonitrile
5528.0,OCc1ccccc1O[C@@H]1OC(CO)[C@@H](O)[C@@H](O)C1O,CC#N,mol_5528_solute_opt,mol_5528_solvent_opt,50,21,283.15,-3.635417468586087,D(−)-salicin,acetonitrile
5529.0,OC[C@H]1O[C@@H](Oc2ccc(O)cc2)[C@H](O)[C@@H](O)[C@@H]1O,CC#N,mol_5529_solute_opt,mol_5529_solvent_opt,50,22,283.15,-3.1697962445952848,β-Arbutin,acetonitrile
5530.0,O=Cc1cc(Br)c(O)c(Br)c1,CC#N,mol_5530_solute_opt,mol_5530_solvent_opt,50,33,278.15,-1.40876176021974,"3,5-dibromo-4-hydroxybenzaldehyde",acetonitrile
5531.0,CC(C)OC(=O)C(C)(C)Oc1ccc(C(=O)c2ccc(Cl)cc2)cc1,CC#N,mol_5531_solute_opt,mol_5531_solvent_opt,50,14,243.15,-1.327706883110696,Fenofibrate,acetonitrile
5532.0,NC(=O)c1ccccc1O,CC#N,mol_5532_solute_opt,mol_5532_solvent_opt,50,40,243.15,-0.9892878233196752,Salicylamide,acetonitrile
5533.0,O=C(O)c1ccccc1O,CC#N,mol_5533_solute_opt,mol_5533_solvent_opt,50,35,243.15,-0.9721671798730678,Salicylic acid,acetonitrile
5534.0,O=C(O)Cc1ccccc1[N+](=O)[O-],CC#N,mol_5534_solute_opt,mol_5534_solvent_opt,50,29,283.15,-0.5535223439990847,2-nitrophenylacetic acid,acetonitrile
5535.0,C=CC(=O)NC(C)(C)CS(=O)(=O)O,CC#N,mol_5535_solute_opt,mol_5535_solvent_opt,50,38,283.15,-3.221524742524285,2-acrylamide-2-methylpropanesulfonic acid,acetonitrile
5536.0,CCCOC(=O)c1ccc(O)cc1,CC#N,mol_5536_solute_opt,mol_5536_solvent_opt,50,32,283.15,-0.1460546401477263,Propylparaben,acetonitrile
5537.0,O=C1CC[C@@H](C(=O)N2CSC[C@H]2C(=O)O)N1,CC#N,mol_5537_solute_opt,mol_5537_solvent_opt,50,33,278.15,-2.237993288797138,Pidotimod,acetonitrile
5538.0,Nc1ccc(Cc2ccc(N)c(Cl)c2)cc1Cl,CC#N,mol_5538_solute_opt,mol_5538_solvent_opt,50,29,283.15,-0.3864743788887353,"4,4′-methylene-bis-(2-chloroaniline)",acetonitrile
5539.0,O=Cc1cc(C=O)cc(C=O)c1,CC#N,mol_5539_solute_opt,mol_5539_solvent_opt,50,41,283.15,-1.0105555921128948,"1,3,5-triformylbenzene",acetonitrile
5540.0,O=C(O)[C@@H]1C[C@@H](O)CN1,CC#N,mol_5540_solute_opt,mol_5540_solvent_opt,50,41,288.15,-3.1983728423944573,L-hydroxyproline,acetonitrile
5541.0,CC(=O)O[C@]1(C(C)=O)CC[C@H]2[C@@H]3C=C(Cl)C4=CC(=O)[C@@H]5C[C@@H]5[C@]4(C)[C@H]3CC[C@@]21C,CC#N,mol_5541_solute_opt,mol_5541_solvent_opt,50,14,273.15,-2.331875825628606,Cyproterone acetate,acetonitrile
5542.0,CCn1c2ccccc2c2cc(-n3nncc3-c3ccccc3)ccc21,CC#N,mol_5542_solute_opt,mol_5542_solvent_opt,50,18,281.7,-1.438032045027417,MBQ-167,acetonitrile
5543.0,NC(=O)[C@@H]1CCCN1,CC#N,mol_5543_solute_opt,mol_5543_solvent_opt,50,34,278.15,0.060196628809379,L-prolinamide,acetonitrile
5544.0,CC(=O)NCC(=O)O,CC#N,mol_5544_solute_opt,mol_5544_solvent_opt,50,31,283.15,-2.369391226145576,N-acetylglycine,acetonitrile
5545.0,O=C(O)[C@@H]1CSCN1,CC#N,mol_5545_solute_opt,mol_5545_solvent_opt,50,38,283.15,-3.371447254112529,L-thioproline,acetonitrile
5546.0,O=C(O)c1cccc(O)c1O,CC#N,mol_5546_solute_opt,mol_5546_solvent_opt,50,36,278.15,-0.7416498896096804,"2,3-dihydroxybenzoic acid",acetonitrile
5547.0,O=C(Nc1ccccc1)c1ccccc1O,CC#N,mol_5547_solute_opt,mol_5547_solvent_opt,50,26,283.15,-0.5991336035490338,Salicylanilide,acetonitrile
5548.0,NC1CCSC1=O,CC#N,mol_5548_solute_opt,mol_5548_solvent_opt,50,38,283.15,-3.060647432051673,DL-homocysteine thiolactone hydrochloride,acetonitrile
5549.0,CC(=O)N1CCC[C@H]1C(=O)O,CC#N,mol_5549_solute_opt,mol_5549_solvent_opt,50,29,283.15,-0.5063550337086676,N-acetyl-L-proline,acetonitrile
5550.0,CC(=O)Nc1ccccc1[N+](=O)[O-],CC#N,mol_5550_solute_opt,mol_5550_solvent_opt,50,27,278.15,-0.5112086443215311,o-nitroacetanilide,acetonitrile
5551.0,Cc1cc(Cl)cc(C(=O)O)c1N,CC#N,mol_5551_solute_opt,mol_5551_solvent_opt,50,32,278.15,-1.622565422887724,2-amino-5-chloro-3-methylbenzoic acid,acetonitrile
5552.0,O=C(O)CNCc1ccccc1,CC#N,mol_5552_solute_opt,mol_5552_solvent_opt,50,31,283.15,-4.014907313704581,N-benzylglycine,acetonitrile
5553.0,Nc1cccc(S(=O)(=O)c2cccc(N)c2)c1,CC#N,mol_5553_solute_opt,mol_5553_solvent_opt,50,15,283.15,-0.926394060704383,"3,3′-diaminodiphenyl sulfone",acetonitrile
5554.0,CSCCC(NC(C)=O)C(=O)O,CC#N,mol_5554_solute_opt,mol_5554_solvent_opt,50,30,283.15,-1.247226643086493,N-acetyl-DL-methionine,acetonitrile
5555.0,OCC(CO)(CO)CO,CC#N,mol_5555_solute_opt,mol_5555_solvent_opt,50,33,283.15,-3.362846891256794,Pentaerythritol,acetonitrile
5556.0,Cc1c(N)cccc1C(=O)O,CC#N,mol_5556_solute_opt,mol_5556_solvent_opt,50,30,288.15,-2.1146673703531764,3-amino-2-methylbenzoic acid,acetonitrile
5557.0,O=C(O)COc1ccc(Cl)cc1,CC#N,mol_5557_solute_opt,mol_5557_solvent_opt,50,30,283.15,-0.8177112250677167,4-chlorophenoxyacetic acid,acetonitrile
5558.0,c1ccc(-n2c(-c3cc(-c4nc5ccccc5n4-c4ccccc4)cc(-c4nc5ccccc5n4-c4ccccc4)c3)nc3ccccc32)cc1,CC#N,mol_5558_solute_opt,mol_5558_solvent_opt,50,5,283.15,-2.656925125788769,"1,3,5-tris(1-phenyl-1H-benzimidazol-2-yl)benzene",acetonitrile
5559.0,O=C(O)c1cccc(C(=O)O)n1,CC#N,mol_5559_solute_opt,mol_5559_solvent_opt,50,35,278.15,-2.448348169840061,"2,6-pyridinedicarboxylic acid",acetonitrile
5560.0,CC(C)(C)OC(=O)N1CCC[C@H]1C(=O)O,CC#N,mol_5560_solute_opt,mol_5560_solvent_opt,50,21,283.15,-0.655787842195615,Boc-L-proline,acetonitrile
5561.0,Nc1nc(=O)[nH]cc1F,CC#N,mol_5561_solute_opt,mol_5561_solvent_opt,50,39,283.15,-3.868778409432168,5-fluorocytosine,acetonitrile
5562.0,CNC(=O)c1cc(Oc2ccc(N)cc2)ccn1,CC#N,mol_5562_solute_opt,mol_5562_solvent_opt,50,25,278.15,-0.2423800137107325,4-[2-(n-methylcarbamyl)-4-pyridyloxy]aniline,acetonitrile
5563.0,O=C(N[C@H](C(=O)O)c1ccccc1)OCc1ccccc1,CC#N,mol_5563_solute_opt,mol_5563_solvent_opt,50,24,283.15,-0.8849503844227306,N-carbobenzoxy-L-2-phenylglycine,acetonitrile
5564.0,Nc1cccc(C(=O)O)c1,CC#N,mol_5564_solute_opt,mol_5564_solvent_opt,50,33,283.15,-1.4304240351052575,M-aminobenzoic acid,acetonitrile
5565.0,Cc1ccccc1C(=O)O,CC#N,mol_5565_solute_opt,mol_5565_solvent_opt,50,34,299.15,0.9367802666158196,o-methylbenzoic acid,acetonitrile
5566.0,O=C(O)c1ccccc1C(=O)O,CC#N,mol_5566_solute_opt,mol_5566_solvent_opt,50,32,296.95,-0.3185318020182863,o-phthalic acid,acetonitrile
5567.0,O=C(O)c1cccc([N+](=O)[O-])c1O,CC#N,mol_5567_solute_opt,mol_5567_solvent_opt,50,29,278.15,-0.1584642846746157,3-nitrosalicylic acid,acetonitrile
5568.0,CNC(=O)c1cc(Oc2ccc(NC(=O)Nc3ccc(Cl)c(C(F)(F)F)c3)cc2)ccn1,CC#N,mol_5568_solute_opt,mol_5568_solvent_opt,50,16,273.15,-2.498313211390657,Sorafenib,acetonitrile
5569.0,O=C1CCc2cc(OCCCCc3nnnn3C3CCCCC3)ccc2N1,CC#N,mol_5569_solute_opt,mol_5569_solvent_opt,50,19,273.15,-2.2306470247273897,Cilostazol,acetonitrile
5570.0,C#C[C@]1(O)C=C[C@H]2[C@@H]3CCC4=CC(=O)CC[C@@H]4[C@H]3CC[C@@]21CC,CC#N,mol_5570_solute_opt,mol_5570_solvent_opt,50,17,283.15,-1.294438853461903,Gestodene,acetonitrile
5571.0,CSc1nc2cc(Oc3cccc(Cl)c3Cl)c(Cl)cc2[nH]1,CC#N,mol_5571_solute_opt,mol_5571_solvent_opt,50,28,278.15,-1.911816684691276,Triclabendazole,acetonitrile
5572.0,COc1cc(C=O)cc(OC)c1OC,CC#N,mol_5572_solute_opt,mol_5572_solvent_opt,50,26,278.15,0.2800630896994079,"3,4,5-trimethoxybenzaldehyde",acetonitrile
5573.0,CC(S)C(=O)NCC(=O)O,CC#N,mol_5573_solute_opt,mol_5573_solvent_opt,50,32,273.15,-0.727879468851454,Tiopronin,acetonitrile
5574.0,Cc1ccc(Nc2nccc(N(C)c3ccc4c(C)n(C)nc4c3)n2)cc1S(N)(=O)=O,CC#N,mol_5574_solute_opt,mol_5574_solvent_opt,50,17,288.15,-4.683476889701483,Pazopanib,acetonitrile
5575.0,O=C(O)CNC(=O)OCc1ccccc1,CC#N,mol_5575_solute_opt,mol_5575_solvent_opt,50,26,283.15,-0.6856881732779614,N-carbobenzyloxyglycine,acetonitrile
5576.0,CC(C)(C)OC(=O)N[C@@H](CC(N)=O)C(=O)O,CC#N,mol_5576_solute_opt,mol_5576_solvent_opt,50,26,283.15,-2.5802815130819625,Boc-L-asparagine,acetonitrile
5577.0,CCOc1ccc(C=O)cc1O,CC#N,mol_5577_solute_opt,mol_5577_solvent_opt,50,29,283.15,-0.6881059889909155,Iso-ethylvanillin,acetonitrile
5578.0,CCOc1ccc(NC(C)=O)cc1,CC#N,mol_5578_solute_opt,mol_5578_solvent_opt,50,22,283.15,-0.9654417259542986,Phenacetin,acetonitrile
5579.0,NC(=O)C[C@H](NC(=O)OCc1ccccc1)C(=O)O,CC#N,mol_5579_solute_opt,mol_5579_solvent_opt,50,28,283.15,-2.839887343989561,N-benzyloxycarbonyl-L-asparagine,acetonitrile
5580.0,CCc1nc(N)nc(N)c1-c1ccc(Cl)cc1,CC#N,mol_5580_solute_opt,mol_5580_solvent_opt,50,23,278.15,-2.750844294942225,Pyrimethamine,acetonitrile
5581.0,CC(=O)Nc1ccc([N+](=O)[O-])cc1,CC#N,mol_5581_solute_opt,mol_5581_solvent_opt,50,31,278.15,-1.3380487498426232,p-Nitroacetanilide,acetonitrile
5582.0,COC(=O)C1=C(C)NC(C)=C(C(=O)OCC(C)C)C1c1ccccc1[N+](=O)[O-],CC#N,mol_5582_solute_opt,mol_5582_solvent_opt,50,19,278.15,-0.790561684739384,Nisoldipine,acetonitrile
5583.0,CC(=O)OC(OC(C)=O)c1ccc([N+](=O)[O-])o1,CC#N,mol_5583_solute_opt,mol_5583_solvent_opt,50,25,278.15,-1.5060633324160335,2-(diacetoxymethyl)-5-nitrofuran,acetonitrile
5584.0,NC(N)=NCCC[C@H](NC(=O)OCc1ccccc1)C(=O)O,CC#N,mol_5584_solute_opt,mol_5584_solvent_opt,50,22,283.15,-3.53778171599667,Nα-carbobenzyloxy-L-arginine,acetonitrile
5585.0,CC(C)OC(=O)[C@H](C)N[P@](=O)(OC[C@H]1O[C@@H](n2ccc(=O)[nH]c2=O)[C@](C)(F)[C@@H]1O)Oc1ccccc1,CC#N,mol_5585_solute_opt,mol_5585_solvent_opt,50,14,278.15,-1.0241066629501987,Sofosbuvir,acetonitrile
5586.0,O=C([O-])c1nc[nH]n1,CC#N,mol_5586_solute_opt,mol_5586_solvent_opt,50,43,278.65,-1.7847778509244538,"Methyl 1,2,4-triazole-3-carboxylate",acetonitrile
5587.0,O=C(O)c1cc([N+](=O)[O-])ccc1O,CC#N,mol_5587_solute_opt,mol_5587_solvent_opt,50,32,278.15,-0.1816176558948975,5-nitroSalicylic acid,acetonitrile
5588.0,O=P1(C(Nc2ccccc2)c2ccccc2)OCC2(CO1)COP(=O)(C(Nc1ccccc1)c1ccccc1)OC2,CC#N,mol_5588_solute_opt,mol_5588_solvent_opt,50,16,288.3,-3.1606739529248284,"3,9-bis(phenyl(phenylamino)methyl)-2,4,8,10-tetraoxa-3,9-diphosphaspiro[5.5] undecane 3,9-dioxide",acetonitrile
5589.0,O=c1cc(-c2ccccc2)oc2c1ccc1ccccc12,CC#N,mol_5589_solute_opt,mol_5589_solvent_opt,50,27,273.15,-1.909666120991684,α-Naphthoflavone,acetonitrile
5590.0,O=C(N[C@@H](Cc1c[nH]c2ccccc12)C(=O)O)OCc1ccccc1,CC#N,mol_5590_solute_opt,mol_5590_solvent_opt,50,23,283.15,-0.411447422694158,N-benzyloxycarbonyl-L-tryptophan,acetonitrile
5591.0,CC(C)(C)OC(=O)N[C@@H](CCC(N)=O)C(=O)O,CC#N,mol_5591_solute_opt,mol_5591_solvent_opt,50,23,283.15,-1.246034937603893,Boc-L-glutamine,acetonitrile
5592.0,O=C1c2ccccc2-c2ccc(Br)cc21,CC#N,mol_5592_solute_opt,mol_5592_solvent_opt,50,31,278.15,-1.8112610232667976,2-bromo-9-fluorenone,acetonitrile
5593.0,NC(=O)Nc1ccccc1,CC#N,mol_5593_solute_opt,mol_5593_solvent_opt,50,30,283.15,-0.9170984097259286,1-phenylurea,acetonitrile
5594.0,Nc1ccccn1,CC#N,mol_5594_solute_opt,mol_5594_solvent_opt,50,34,273.15,-0.1745390100963942,2-aminopyridine,acetonitrile
5595.0,O=[N+]([O-])c1cc([N+](=O)[O-])c(Cl)cc1Cl,CC#N,mol_5595_solute_opt,mol_5595_solvent_opt,50,32,298.15,0.4467587730775674,"1,5-dichloro-2,4-dinitrobenzene",acetonitrile
5596.0,CS(=O)(=O)Nc1ccc([N+](=O)[O-])cc1Oc1ccccc1,CC#N,mol_5596_solute_opt,mol_5596_solvent_opt,50,24,273.15,-0.8468813932913366,Nimesulide,acetonitrile
5597.0,O=C(O)c1ccc(Br)cn1,CC#N,mol_5597_solute_opt,mol_5597_solvent_opt,50,34,278.15,-1.459685007420081,5-bromo-2-pyridinecarboxylic acid,acetonitrile
5598.0,CCCc1nc(C(C)(C)O)c(C(=O)OCC)n1Cc1ccc(-c2ccccc2-c2nnnn2C(c2ccccc2)(c2ccccc2)c2ccccc2)cc1,CC#N,mol_5598_solute_opt,mol_5598_solvent_opt,50,9,278.15,-2.2798806512612333,N-trityl olmesartan ethyl ester,acetonitrile
5599.0,O=C(O)c1cc([N+](=O)[O-])cc([N+](=O)[O-])c1,CC#N,mol_5599_solute_opt,mol_5599_solvent_opt,50,39,283.15,-0.799006731263454,"3,5-dinitrobenzoic acid",acetonitrile
5600.0,Nc1cccc2ccncc12,CC#N,mol_5600_solute_opt,mol_5600_solvent_opt,50,32,278.15,-1.0479243770143198,8-isoquinolinamine,acetonitrile
5601.0,CCCCCCC1(CCCCCC)c2cc(Br)ccc2-c2ccc(Br)cc21,CC#N,mol_5601_solute_opt,mol_5601_solvent_opt,50,12,283.15,-2.2294471701504417,"9,9-dihexyl-2,7-dibromofluorene",acetonitrile
5602.0,O=c1cnc(Br)c[nH]1,CC#N,mol_5602_solute_opt,mol_5602_solvent_opt,50,42,278.15,-1.0933425760060071,2-bromo-5-hydroxypyrazine,acetonitrile
5603.0,NC(=O)CC[C@H](N)C(=O)O,CC#N,mol_5603_solute_opt,mol_5603_solvent_opt,50,31,283.15,-3.1773061069597617,L-glutamine,acetonitrile
5604.0,c1ccc(-c2ccc(C(c3ccccc3)n3ccnc3)cc2)cc1,CC#N,mol_5604_solute_opt,mol_5604_solvent_opt,50,24,283.24,-1.6768320283839535,Bifonazole,acetonitrile
5605.0,c1ccc(-n2c3ccccc3c3ccccc32)cc1,CC#N,mol_5605_solute_opt,mol_5605_solvent_opt,50,19,278.15,-1.1260134274315394,9-phenylcarbazole,acetonitrile
5606.0,O=C(Nc1ccncc1)c1cc(C(=O)Nc2ccncc2)cc(C(=O)Nc2ccncc2)c1,CC#N,mol_5606_solute_opt,mol_5606_solvent_opt,50,15,283.15,-2.8476784287536345,"N1,N3,N5-tris(pyridin-4-yl)benzene-1,3,5-tricarboxamide (TPBTC)",acetonitrile
5607.0,Cc1ccc2cc(Br)ccc2n1,CC#N,mol_5607_solute_opt,mol_5607_solvent_opt,50,32,278.15,-0.8966827711340692,6-bromo-2-methylquinoline,acetonitrile
5608.0,NC(=O)c1ccncc1,CC#N,mol_5608_solute_opt,mol_5608_solvent_opt,50,36,278.15,-1.310113571760141,Isonicotinamide,acetonitrile
5609.0,CC(O)(CS(=O)(=O)c1ccc(F)cc1)C(=O)Nc1ccc(C#N)c(C(F)(F)F)c1,CC#N,mol_5609_solute_opt,mol_5609_solvent_opt,50,19,278.15,-1.27241365166557,Bicalutamide,acetonitrile
5610.0,O=S1(=O)OC(c2ccc(O)cc2)(c2ccc(O)cc2)c2ccccc21,CC#N,mol_5610_solute_opt,mol_5610_solvent_opt,50,26,278.15,-2.776747158193118,Phenol red,acetonitrile
5611.0,O=C(N[C@@H](CO)C(=O)O)OCc1ccccc1,CC#N,mol_5611_solute_opt,mol_5611_solvent_opt,50,24,283.15,-0.8626177526731675,N-benzyloxycarbonyl-L-serine,acetonitrile
5612.0,COC(=O)c1ccnc(N)c1,CC#N,mol_5612_solute_opt,mol_5612_solvent_opt,50,33,278.15,-0.9768617956550436,Methyl 2-aminopyridine-4-carboxylate,acetonitrile
5613.0,CC(C)C[C@H](N)C(=O)O,CC#N,mol_5613_solute_opt,mol_5613_solvent_opt,50,25,283.15,-3.1261517169778497,L-leucine,acetonitrile
5614.0,CC(C)[C@H](N)C(=O)O,CC#N,mol_5614_solute_opt,mol_5614_solvent_opt,50,28,283.15,-3.333657824614188,L-valine,acetonitrile
5615.0,Oc1ccccc1C=Nc1c(F)cccc1F,CC#N,mol_5615_solute_opt,mol_5615_solvent_opt,50,25,273.15,-0.574934900100099,"2-[[(2,6-difluorophenyl)imino]methyl]phenol",acetonitrile
5616.0,c1ccc2c(c1)Cc1ccccc1-2,CC#N,mol_5616_solute_opt,mol_5616_solvent_opt,50,27,278.15,-0.7010207369194617,Fluorene,acetonitrile
5617.0,O=C(O)CNC(=O)C(=O)NCC(=O)O,CC#N,mol_5617_solute_opt,mol_5617_solvent_opt,50,32,293.15,-4.515846450277262,"N,N′-oxalyldiglycine",acetonitrile