pair_id,SMILES_Solute,SMILES_Solvent,Solute_name,Solvent_name,Total_conformers,Filtered_conformers,Temperature_K,LogS,Compound_Name,Solvent
402.0,NC(=O)c1cccnc1Cl,CCO,mol_402_solute_opt,mol_402_solvent_opt,50,35,278.15,-1.275843674326654,2-chloronicotinamide,ethanol
403.0,CC(=O)c1c(C)c2cnc(Nc3ccc(N4CCNCC4)cn3)nc2n(C2CCCC2)c1=O,CCO,mol_403_solute_opt,mol_403_solvent_opt,50,21,293.15,-3.4417375284294507,Palbociclib,ethanol
404.0,O=C(NC[C@H]1CN(c2ccc(N3CCOCC3=O)cc2)C(=O)O1)c1ccc(Cl)s1,CCO,mol_404_solute_opt,mol_404_solvent_opt,50,24,283.15,-3.678833014696096,Rivaroxaban,ethanol
405.0,O=C(c1ccccc1)c1ccc(Cl)cc1,CCO,mol_405_solute_opt,mol_405_solvent_opt,50,36,278.15,-0.8428925078837938,4-chlorobenzophenone,ethanol
406.0,O=c1c2ccccc2sc2ccc(Cl)cc12,CCO,mol_406_solute_opt,mol_406_solvent_opt,50,36,287.55,-2.009529698825239,2-chlorothioxanthone (CTX),ethanol
407.0,CC(N)=S,CCO,mol_407_solute_opt,mol_407_solvent_opt,50,40,273.15,0.0782251506561978,Thioacetamide,ethanol
408.0,O=C(Nc1ccc([N+](=O)[O-])cc1Cl)c1cc(Cl)ccc1O,CCO,mol_408_solute_opt,mol_408_solvent_opt,50,30,298.15,-2.5481211129967,Niclosamide,ethanol
409.0,C1=CONN=C1,CCO,mol_409_solute_opt,mol_409_solvent_opt,50,42,293.15,-1.5531330654617173,Oxadiazine,ethanol
410.0,Brc1cnc2[nH]ccc2c1,CCO,mol_410_solute_opt,mol_410_solvent_opt,50,36,278.15,-0.8633962724495485,5-bromo-7-azaindole,ethanol
411.0,CC1=C[C@H](O)CC(C)(C)[C@H]1/C=C/C(C)=C/C=C/C(C)=C/C=C/C=C(C)/C=C/C=C(C)/C=C/C1=C(C)C[C@@H](O)CC1(C)C,CCO,mol_411_solute_opt,mol_411_solvent_opt,50,14,278.15,-3.515349941701823,Lutein,ethanol
412.0,CC(=CC(C)=Nc1c(C)cc(C)cc1C)Nc1c(C)cc(C)cc1C,CCO,mol_412_solute_opt,mol_412_solvent_opt,50,23,273.15,-1.3004495902375472,"2,4,6-trimethyl-N-[4-(2,4,6-trimethylphenyl)iminopent-2-en-2-yl]aniline",ethanol
413.0,CCCN(CCc1cccs1)[C@H]1CCc2c(O)cccc2C1,CCO,mol_413_solute_opt,mol_413_solvent_opt,50,28,278.15,-1.3849535031629905,Rotigotine,ethanol
414.0,NC(=O)c1nc(F)cnc1O,CCO,mol_414_solute_opt,mol_414_solvent_opt,50,42,293.15,-1.4512663576820175,Favipiravir,ethanol
415.0,O=C1O[C@H](CO)[C@@H](O)[C@H](O)[C@H]1O,CCO,mol_415_solute_opt,mol_415_solvent_opt,50,37,288.15,-2.129206043452144,"1,5-gluconolactone",ethanol
416.0,O=C(O)/C=C/c1ccc(O)cc1,CCO,mol_416_solute_opt,mol_416_solvent_opt,50,33,283.15,-0.1916561771581152,p-coumaric acid,ethanol
417.0,O=C(O)/C=C/c1ccccc1,CCO,mol_417_solute_opt,mol_417_solvent_opt,50,33,283.15,-0.0233104287353307,trans-cinnamic acid,ethanol
418.0,N[C@@H](Cc1c[nH]c2ccccc12)C(=O)O,CCO,mol_418_solute_opt,mol_418_solvent_opt,50,32,288.15,-2.611621312446533,L-tryptophan,ethanol
419.0,N[C@@H](Cc1cnc[nH]1)C(=O)O,CCO,mol_419_solute_opt,mol_419_solvent_opt,50,36,288.15,-3.559844399601766,L-histidine,ethanol
420.0,O=C1CCCCCCCCCCC1,CCO,mol_420_solute_opt,mol_420_solvent_opt,50,38,278.15,-0.0639514022804954,Cyclododecanone,ethanol
421.0,COc1c(C(C)(C)C)cc([N+](=O)[O-])c(C)c1[N+](=O)[O-],CCO,mol_421_solute_opt,mol_421_solvent_opt,50,26,278.15,-1.2023567074441257,"4-tert-butyl-2,6-dinitro-3-methoxytoluene",ethanol
422.0,C=C1C[C@]23C[C@@]1(O)CC[C@H]2[C@@]12C=C[C@H](O)[C@@](C)(C(=O)O1)[C@H]2[C@@H]3C(=O)O,CCO,mol_422_solute_opt,mol_422_solvent_opt,50,26,278.15,0.5843301339205013,Gibberellin a3,ethanol
424.0,CCCCC(=O)N(Cc1ccc(-c2ccccc2-c2nn[nH]n2)cc1)[C@H](C(=O)O)C(C)C,CCO,mol_424_solute_opt,mol_424_solvent_opt,50,22,278.15,-0.1167920466631844,Valsartan,ethanol
425.0,CC(=O)N[C@@H](CCC(N)=O)C(=O)O,CCO,mol_425_solute_opt,mol_425_solvent_opt,50,34,283.15,-2.2211434388789435,N-acetyl-L-glutamine,ethanol
426.0,Oc1ccccc1C=Nc1ccccn1,CCO,mol_426_solute_opt,mol_426_solvent_opt,50,35,268.15,-0.754232857154827,2-[(E)-(2-Pyridinylimino)methyl]phenol,ethanol
427.0,Nc1cc(Cl)ccc1[N+](=O)[O-],CCO,mol_427_solute_opt,mol_427_solvent_opt,50,39,283.15,-0.5387913503671744,5-chloro-2-nitroaniline,ethanol
428.0,CCOC(=O)[C@@H](C)Oc1ccc(Oc2nc3ccc(Cl)cc3o2)cc1,CCO,mol_428_solute_opt,mol_428_solvent_opt,50,26,278.15,-1.7708925051295836,Fenoxaprop-p-ethyl,ethanol
429.0,Cc1ccc(CO)cc1,CCO,mol_429_solute_opt,mol_429_solvent_opt,50,39,278.15,0.7314085868003347,p-methylbenzyl alcohol,ethanol
430.0,NC(=O)Cc1ccc(O)cc1,CCO,mol_430_solute_opt,mol_430_solvent_opt,50,33,278.15,-1.1763088546277658,4-hydroxyphenylacetamide,ethanol
431.0,CC1CCC(=O)C1=O,CCO,mol_431_solute_opt,mol_431_solvent_opt,50,40,278.15,-0.0958968682297748,"3-methyl-1,2-cyclopentanedione",ethanol
432.0,Cc1cc(O)c2c(c1)C(=O)c1cc(O)cc(O)c1C2=O,CCO,mol_432_solute_opt,mol_432_solvent_opt,50,39,283.15,-2.838623195268355,Emodin,ethanol
433.0,CCN(CC)C(=S)SSC(=S)N(CC)CC,CCO,mol_433_solute_opt,mol_433_solvent_opt,50,29,273.15,-1.8004538612551613,Disulfiram,ethanol
434.0,CN(CCOc1ccc(CC2SC(=O)NC2=O)cc1)c1ccccn1,CCO,mol_434_solute_opt,mol_434_solvent_opt,50,28,283.15,-2.3725284831384856,Rosiglitazone,ethanol
435.0,CCCCCc1ccc2c(c1)C(=O)c1ccccc1C2=O,CCO,mol_435_solute_opt,mol_435_solvent_opt,50,27,288.15,-1.3003120493818532,2-amyl anthraquinone,ethanol
436.0,OCc1cn(Cc2ccccc2)nn1,CCO,mol_436_solute_opt,mol_436_solvent_opt,50,33,292.15,0.0128023824920611,"(1-benzyl-1H-1,2,3-triazole-4-yl)methanol",ethanol
437.0,CCc1nnc(NC(=O)c2ccc([N+](=O)[O-])cc2)s1,CCO,mol_437_solute_opt,mol_437_solvent_opt,50,29,288.15,-3.315252807273505,"N-(5-ethyl-1,3,4-thiadiazole-2-yl)-4-nitrobenzamide",ethanol
438.0,CCC[C@@H]1C[C@@H](C(=O)N[C@@H]([C@H]2O[C@H](SC)[C@H](O)[C@H]3OC(C)(C)O[C@H]32)[C@H](C)Cl)N(C)C1,CCO,mol_438_solute_opt,mol_438_solvent_opt,50,21,273.15,-0.5857936588107582,"3,4-o-isopropylidene clindamycin",ethanol
439.0,CC1(C)C[C@@H]1C(N)=O,CCO,mol_439_solute_opt,mol_439_solvent_opt,50,33,290.04,0.2253749883061393,"(S)-(+)-2,2-dimethyl-cyclopropane carbox amide",ethanol
440.0,ClCc1ccc(Cl)nc1,CCO,mol_440_solute_opt,mol_440_solvent_opt,50,38,277.65,-1.2363355393704905,2-chloro-5-chloromethylpyridine,ethanol
441.0,O=C[C@H](O)[C@H](O)[C@H](O)CO,CCO,mol_441_solute_opt,mol_441_solvent_opt,50,33,283.15,-0.8559163052705919,D-ribose,ethanol
442.0,N[C@@H](CS)C(=O)O,CCO,mol_442_solute_opt,mol_442_solvent_opt,50,34,283.15,-2.252280817899178,L-cysteine,ethanol
443.0,O=C(O)c1cc([N+](=O)[O-])cc([N+](=O)[O-])c1O,CCO,mol_443_solute_opt,mol_443_solvent_opt,50,41,278.15,-0.0706614555462453,"3,5-dinitrosalicylic acid",ethanol
444.0,CCCSc1nc(N[C@@H]2C[C@H]2c2ccc(F)c(F)c2)c2nnn([C@@H]3C[C@H](OCCO)[C@@H](O)[C@H]3O)c2n1,CCO,mol_444_solute_opt,mol_444_solvent_opt,50,23,273.15,-1.2567149310182928,Ticagrelor,ethanol
445.0,c1cnc2[nH]ccc2c1,CCO,mol_445_solute_opt,mol_445_solvent_opt,50,40,278.15,0.4952295877624897,7-azaindole,ethanol
446.0,O=C1N=c2ccccc2=N1,CCO,mol_446_solute_opt,mol_446_solvent_opt,50,42,283.15,-1.3074537075590051,2-benzimidazolone,ethanol
447.0,CC(C)(c1ccc(O)cc1)c1ccc(O)cc1,CCO,mol_447_solute_opt,mol_447_solvent_opt,50,35,273.15,0.6677964201296755,Bisphenol A,ethanol
448.0,O=C(Nc1ccccc1)c1ccccc1,CCO,mol_448_solute_opt,mol_448_solvent_opt,50,29,274.15,-1.404812040449392,Benzanilide,ethanol
449.0,O=C(O)Cc1ccc([N+](=O)[O-])cc1,CCO,mol_449_solute_opt,mol_449_solvent_opt,50,40,283.15,0.15203156565331,4-nitrophenylacetic acid,ethanol
450.0,C#C[C@]1(O)CC[C@H]2[C@@H]3CCC4=CC(=O)CC[C@@H]4[C@H]3C(=C)C[C@@]21CC,CCO,mol_450_solute_opt,mol_450_solvent_opt,50,29,273.15,-1.5253461063911316,Etonogestrel,ethanol
451.0,CC(=O)Oc1ccccc1C(=O)Nc1ncc([N+](=O)[O-])s1,CCO,mol_451_solute_opt,mol_451_solvent_opt,50,31,273.15,-2.688297279483,Nitazoxanide,ethanol
452.0,CCOC(=O)C1(c2ccccc2)CCN(CCC(C#N)(c2ccccc2)c2ccccc2)CC1,CCO,mol_452_solute_opt,mol_452_solvent_opt,50,23,278.15,-1.812842762380064,Diphenoxylate,ethanol
453.0,CC1=NN(c2ccccc2)C(=O)C1,CCO,mol_453_solute_opt,mol_453_solvent_opt,50,37,283.15,-0.5082235350353879,Edaravone,ethanol
454.0,Nc1cccc(Cl)c1C(=O)O,CCO,mol_454_solute_opt,mol_454_solvent_opt,50,35,278.15,-0.2933757071388626,2-amino-6-chlorobenzoic acid,ethanol
455.0,OCc1ccccc1O[C@@H]1OC(CO)[C@@H](O)[C@@H](O)C1O,CCO,mol_455_solute_opt,mol_455_solvent_opt,50,32,283.15,-2.2908937002007352,D(−)-salicin,ethanol
456.0,OC[C@H]1O[C@@H](Oc2ccc(O)cc2)[C@H](O)[C@@H](O)[C@@H]1O,CCO,mol_456_solute_opt,mol_456_solvent_opt,50,27,283.15,-1.4019344773268247,β-Arbutin,ethanol
457.0,O=C(NCCO[N+](=O)[O-])c1cccnc1,CCO,mol_457_solute_opt,mol_457_solvent_opt,50,37,278.15,-1.572967037826094,Nicorandil,ethanol
458.0,CCCCS(=O)(=O)N[C@@H](Cc1ccc(OCCCCC2CCNCC2)cc1)C(=O)O,CCO,mol_458_solute_opt,mol_458_solvent_opt,50,27,278.15,-2.647236969652271,Tirofiban,ethanol
459.0,O=Cc1cc(Br)c(O)c(Br)c1,CCO,mol_459_solute_opt,mol_459_solvent_opt,50,41,278.15,-1.3095836424878704,"3,5-dibromo-4-hydroxybenzaldehyde",ethanol
460.0,Nc1cc(-c2ccncc2)c[nH]c1=O,CCO,mol_460_solute_opt,mol_460_solvent_opt,50,35,278.15,-3.3349792075829408,Amrinone,ethanol
461.0,Cc1[nH]c(=O)c(C#N)cc1-c1ccncc1,CCO,mol_461_solute_opt,mol_461_solvent_opt,50,38,278.15,-3.793450741935542,Milrinone,ethanol
462.0,COc1cc2nc(Cl)nc(N)c2cc1OC,CCO,mol_462_solute_opt,mol_462_solvent_opt,50,31,273.15,-2.528830948552,"2-chloro-4-amino-6,7-dimethoxyquinazoline",ethanol
463.0,O=C(O)Cc1ccccc1[N+](=O)[O-],CCO,mol_463_solute_opt,mol_463_solvent_opt,50,40,283.15,-0.3137671194764276,2-nitrophenylacetic acid,ethanol
464.0,O=C1OC(=O)C2C3C=CC(O3)C12,CCO,mol_464_solute_opt,mol_464_solvent_opt,50,38,278.15,-1.9558420625555968,"Exo-3,6-epoxy-1,2,3,6-tetrahydrophthalic anhydride",ethanol
465.0,C=CC(=O)NC(C)(C)CS(=O)(=O)O,CCO,mol_465_solute_opt,mol_465_solvent_opt,50,48,283.15,-0.900727824319451,2-acrylamide-2-methylpropanesulfonic acid,ethanol
466.0,O=C1CC[C@@H](C(=O)N2CSC[C@H]2C(=O)O)N1,CCO,mol_466_solute_opt,mol_466_solvent_opt,50,30,278.15,-2.83977751212578,Pidotimod,ethanol
467.0,CCS(=O)(=O)c1cccnc1S(=O)(=O)NC(=O)Nc1nc(OC)cc(OC)n1,CCO,mol_467_solute_opt,mol_467_solvent_opt,50,33,278.15,-3.4785326773191168,Rimsulfuron,ethanol
468.0,COC(=O)c1c(Cl)nn(C)c1S(=O)(=O)NC(=O)Nc1nc(OC)cc(OC)n1,CCO,mol_468_solute_opt,mol_468_solvent_opt,50,31,278.15,-3.207060355900782,Halosulfuron-methyl,ethanol
469.0,Nc1ccc(Cc2ccc(N)c(Cl)c2)cc1Cl,CCO,mol_469_solute_opt,mol_469_solvent_opt,50,31,283.15,-0.4035243921442157,"4,4′-methylene-bis-(2-chloroaniline)",ethanol
470.0,c1ccc2[nH]c(-c3cscn3)nc2c1,CCO,mol_470_solute_opt,mol_470_solvent_opt,50,33,283.15,-1.65385741734494,Thiabendazole,ethanol
471.0,O=Cc1cc(C=O)cc(C=O)c1,CCO,mol_471_solute_opt,mol_471_solvent_opt,50,45,283.15,-1.5043618239024403,"1,3,5-triformylbenzene",ethanol
472.0,O=C(O)[C@@H]1C[C@@H](O)CN1,CCO,mol_472_solute_opt,mol_472_solvent_opt,50,35,283.15,-2.9164951983155087,L-hydroxyproline,ethanol
473.0,CC(=O)O[C@]1(C(C)=O)CC[C@H]2[C@@H]3C=C(Cl)C4=CC(=O)[C@@H]5C[C@@H]5[C@]4(C)[C@H]3CC[C@@]21C,CCO,mol_473_solute_opt,mol_473_solvent_opt,50,24,273.15,-2.24021311202594,Cyproterone acetate,ethanol
474.0,OCC(O)COc1ccc(Cl)cc1,CCO,mol_474_solute_opt,mol_474_solvent_opt,50,36,288.15,0.0591214239756616,Chlorphenesin,ethanol
475.0,CCn1c2ccccc2c2cc(-n3nncc3-c3ccccc3)ccc21,CCO,mol_475_solute_opt,mol_475_solvent_opt,50,27,279.2,-2.150686005972752,MBQ-167,ethanol
476.0,O=C(O)[C@@H]1CSCN1,CCO,mol_476_solute_opt,mol_476_solvent_opt,50,37,283.15,-2.8073420423058755,L-thioproline,ethanol
477.0,O=C(O)c1cccc(O)c1O,CCO,mol_477_solute_opt,mol_477_solvent_opt,50,35,278.15,0.2021357685200955,"2,3-dihydroxybenzoic acid",ethanol
479.0,O=C(Nc1ccccc1)c1ccccc1O,CCO,mol_479_solute_opt,mol_479_solvent_opt,50,28,283.15,-0.48653838463348,Salicylanilide,ethanol
480.0,NC1CCSC1=O,CCO,mol_480_solute_opt,mol_480_solvent_opt,50,45,283.15,-1.2558993716444469,DL-homocysteine thiolactone hydrochloride,ethanol
481.0,CC(=O)N1CCC[C@H]1C(=O)O,CCO,mol_481_solute_opt,mol_481_solvent_opt,50,41,283.15,0.1495445726549432,N-acetyl-L-proline,ethanol
482.0,O=C(O)c1ccc(CO)cc1,CCO,mol_482_solute_opt,mol_482_solvent_opt,50,36,283.15,-0.2887641370181297,4-(hydroxymethyl) benzoic acid,ethanol
483.0,CC(=O)Nc1ccccc1[N+](=O)[O-],CCO,mol_483_solute_opt,mol_483_solvent_opt,50,34,278.15,-0.597917013364578,o-nitroacetanilide,ethanol
484.0,COc1cc2c(cc1OC)C(=O)CC2,CCO,mol_484_solute_opt,mol_484_solvent_opt,50,34,283.15,-0.8411474673432134,"5,6-dimethoxy-1-indanone",ethanol
485.0,Cc1cc(Cl)cc(C(=O)O)c1N,CCO,mol_485_solute_opt,mol_485_solvent_opt,50,36,278.15,-0.9055873570738584,2-amino-5-chloro-3-methylbenzoic acid,ethanol
486.0,O=C(O)CNCc1ccccc1,CCO,mol_486_solute_opt,mol_486_solvent_opt,50,36,283.15,-2.41517424147848,N-benzylglycine,ethanol
487.0,Nc1cccc(S(=O)(=O)c2cccc(N)c2)c1,CCO,mol_487_solute_opt,mol_487_solvent_opt,50,24,283.15,-1.3852940962626548,"3,3′-diaminodiphenyl sulfone",ethanol
488.0,CSCCC(NC(C)=O)C(=O)O,CCO,mol_488_solute_opt,mol_488_solvent_opt,50,37,283.15,-0.0855932423273776,N-acetyl-DL-methionine,ethanol
489.0,OCC(CO)(CO)CO,CCO,mol_489_solute_opt,mol_489_solvent_opt,50,33,283.15,-1.9992943709798672,Pentaerythritol,ethanol
490.0,CCOC(=O)[C@@H](C)Oc1ccc(Oc2cnc3cc(Cl)ccc3n2)cc1,CCO,mol_490_solute_opt,mol_490_solvent_opt,50,27,278.15,-1.7745761731945426,Quizalofop-p-ethyl,ethanol
491.0,Cc1c(N)cccc1C(=O)O,CCO,mol_491_solute_opt,mol_491_solvent_opt,50,34,288.15,-1.1908733520840884,3-amino-2-methylbenzoic acid,ethanol
492.0,O=C(O)COc1ccc(Cl)cc1,CCO,mol_492_solute_opt,mol_492_solvent_opt,50,38,283.15,-0.2589047518908972,4-chlorophenoxyacetic acid,ethanol
493.0,c1ccc(-n2c(-c3cc(-c4nc5ccccc5n4-c4ccccc4)cc(-c4nc5ccccc5n4-c4ccccc4)c3)nc3ccccc32)cc1,CCO,mol_493_solute_opt,mol_493_solvent_opt,50,13,283.15,-2.20880035308355,"1,3,5-tris(1-phenyl-1H-benzimidazol-2-yl)benzene",ethanol
494.0,O=C(O)c1cccc(C(=O)O)n1,CCO,mol_494_solute_opt,mol_494_solvent_opt,50,41,278.15,-1.179755108933401,"2,6-pyridinedicarboxylic acid",ethanol
495.0,CC(C)(C)OC(=O)N1CCC[C@H]1C(=O)O,CCO,mol_495_solute_opt,mol_495_solvent_opt,50,26,283.15,0.2683237158770027,Boc-L-proline,ethanol
496.0,O=C(N[C@H](C(=O)O)c1ccccc1)OCc1ccccc1,CCO,mol_496_solute_opt,mol_496_solvent_opt,50,29,283.15,-0.3808908949144361,N-carbobenzoxy-L-2-phenylglycine,ethanol
497.0,Nc1cccc(C(=O)O)c1,CCO,mol_497_solute_opt,mol_497_solvent_opt,50,36,283.15,-0.8439136040129798,M-aminobenzoic acid,ethanol
498.0,O=C(O)c1cccc([N+](=O)[O-])c1O,CCO,mol_498_solute_opt,mol_498_solvent_opt,50,38,278.15,-0.1685018326118247,3-nitrosalicylic acid,ethanol
499.0,COC(=O)c1sccc1S(=O)(=O)NC(=O)Nc1nc(C)nc(OC)n1,CCO,mol_499_solute_opt,mol_499_solvent_opt,50,40,278.15,-3.155513303847335,Thifensulfuron methyl,ethanol
500.0,CC(C)(Oc1ccc(C2CC2(Cl)Cl)cc1)C(=O)O,CCO,mol_500_solute_opt,mol_500_solvent_opt,50,30,278.15,0.5069001708550378,Ciprofibrate,ethanol
501.0,CNC(=O)c1cc(Oc2ccc(NC(=O)Nc3ccc(Cl)c(C(F)(F)F)c3)cc2)ccn1,CCO,mol_501_solute_opt,mol_501_solvent_opt,50,25,273.15,-1.946694031702664,Sorafenib,ethanol
502.0,CNc1nc(C)nc(OC)n1,CCO,mol_502_solute_opt,mol_502_solvent_opt,50,28,278.15,-0.0408559786604428,"2-methyl-4-methylamino-6-methoxy-1,3,5-triazine",ethanol
503.0,O=C1CCc2cc(OCCCCc3nnnn3C3CCCCC3)ccc2N1,CCO,mol_503_solute_opt,mol_503_solvent_opt,50,23,273.15,-2.531151707328032,Cilostazol,ethanol
504.0,NC(=O)c1ncn([C@@H]2O[C@H](CO)[C@@H](O)[C@H]2O)n1,CCO,mol_504_solute_opt,mol_504_solvent_opt,50,34,283.15,-2.987080832988561,Ribavirin(II),ethanol
505.0,COCCOc1ccccc1S(=O)(=O)NC(=O)Nc1nc(OC)nc(OC)n1,CCO,mol_505_solute_opt,mol_505_solvent_opt,50,32,278.15,-1.5778205645557204,Cinosulfuron,ethanol
506.0,Cn1c([N+](=O)[O-])cnc1N1CCN(S(C)(=O)=O)C1=O,CCO,mol_506_solute_opt,mol_506_solvent_opt,50,36,293.2,-2.18818075172386,Satranidazole,ethanol
507.0,C#C[C@]1(O)C=C[C@H]2[C@@H]3CCC4=CC(=O)CC[C@@H]4[C@H]3CC[C@@]21CC,CCO,mol_507_solute_opt,mol_507_solvent_opt,50,26,283.15,-1.2633281617838654,Gestodene,ethanol
508.0,CSc1nc2cc(Oc3cccc(Cl)c3Cl)c(Cl)cc2[nH]1,CCO,mol_508_solute_opt,mol_508_solvent_opt,50,34,278.15,-0.8939477521435082,Triclabendazole,ethanol
509.0,COc1cc(C=O)cc(OC)c1OC,CCO,mol_509_solute_opt,mol_509_solvent_opt,50,26,278.15,-1.0165309266168765,"3,4,5-trimethoxybenzaldehyde",ethanol
510.0,O=C(O)CSc1ccc2ccccc2c1,CCO,mol_510_solute_opt,mol_510_solvent_opt,50,36,278.15,-1.6130881127528511,(2-naphthylthio)acetic acid,ethanol
511.0,COC(=O)CC[C@H](N)C(=O)O,CCO,mol_511_solute_opt,mol_511_solvent_opt,50,36,283.15,-2.696740995752448,L-glutamic acid 5-methyl ester,ethanol
512.0,Nc1cnc(Cl)cn1,CCO,mol_512_solute_opt,mol_512_solvent_opt,50,40,278.15,-1.412162059580885,5-chloropyrazin-2-amine,ethanol
513.0,CO/N=C1\C[C@]2(C[C@@H]3C[C@@H](C/C=C(\C)C[C@@H](C)/C=C/C=C4\CO[C@@H]5[C@H](O)C(C)=C[C@@H](C(=O)O3)[C@]45O)O2)O[C@H](/C(C)=C/C(C)C)[C@H]1C,CCO,mol_513_solute_opt,mol_513_solvent_opt,50,12,278.15,-0.0094107425478946,Moxidectin,ethanol
514.0,O=C(NC(=O)c1c(F)cccc1F)Nc1cc(Cl)c(F)c(Cl)c1F,CCO,mol_514_solute_opt,mol_514_solvent_opt,50,28,278.15,-0.0511824154270154,Teflubenzuron,ethanol
515.0,O=C(O)CNC(=O)OCc1ccccc1,CCO,mol_515_solute_opt,mol_515_solvent_opt,50,29,283.15,-0.1249711768163461,N-carbobenzyloxyglycine,ethanol
516.0,CC(C)(C)OC(=O)N[C@@H](CC(N)=O)C(=O)O,CCO,mol_516_solute_opt,mol_516_solvent_opt,50,31,283.15,-1.4329314219444302,Boc-L-asparagine,ethanol
517.0,O=C(O)c1ccc(-c2ccccc2)cc1,CCO,mol_517_solute_opt,mol_517_solvent_opt,50,36,293.15,-1.200955628304577,4-biphenylcarboxylic acid,ethanol
518.0,CCOc1ccc(C=O)cc1O,CCO,mol_518_solute_opt,mol_518_solvent_opt,50,39,283.15,-0.9392038601249056,Iso-ethylvanillin,ethanol
519.0,CCOc1ccc(NC(C)=O)cc1,CCO,mol_519_solute_opt,mol_519_solvent_opt,50,33,283.15,-0.7518089640944499,Phenacetin,ethanol
520.0,NC(=O)C[C@H](NC(=O)OCc1ccccc1)C(=O)O,CCO,mol_520_solute_opt,mol_520_solvent_opt,50,31,283.15,-2.34155365704658,N-benzyloxycarbonyl-L-asparagine,ethanol
521.0,CCc1nc(N)nc(N)c1-c1ccc(Cl)cc1,CCO,mol_521_solute_opt,mol_521_solvent_opt,50,28,278.15,-1.9781682741057984,Pyrimethamine,ethanol
522.0,C=CC(=O)NC(C)(C)CC(C)=O,CCO,mol_522_solute_opt,mol_522_solvent_opt,50,30,272.15,0.6033980415767777,Diacetone acrylamide,ethanol
523.0,CC(=O)Nc1ccc([N+](=O)[O-])cc1,CCO,mol_523_solute_opt,mol_523_solvent_opt,50,35,278.15,-1.4977901354488827,p-Nitroacetanilide,ethanol
524.0,NC(N)=NCCC[C@H](NC(=O)OCc1ccccc1)C(=O)O,CCO,mol_524_solute_opt,mol_524_solvent_opt,50,30,283.15,-2.475757495865776,Nα-carbobenzyloxy-L-arginine,ethanol
525.0,CC(C)OC(=O)[C@H](C)N[P@](=O)(OC[C@H]1O[C@@H](n2ccc(=O)[nH]c2=O)[C@](C)(F)[C@@H]1O)Oc1ccccc1,CCO,mol_525_solute_opt,mol_525_solvent_opt,50,22,278.15,-0.4060011541289667,Sofosbuvir,ethanol
526.0,O=C([O-])c1nc[nH]n1,CCO,mol_526_solute_opt,mol_526_solvent_opt,50,37,278.45,-1.6053324504660245,"Methyl 1,2,4-triazole-3-carboxylate",ethanol
527.0,CS(N)(=O)=O,CCO,mol_527_solute_opt,mol_527_solvent_opt,50,41,283.13,-0.326679606813163,Methanesulfonamide,ethanol
528.0,O=C(O)c1cc([N+](=O)[O-])ccc1O,CCO,mol_528_solute_opt,mol_528_solvent_opt,50,40,278.15,-0.2982842272538601,5-nitroSalicylic acid,ethanol
529.0,O=P1(C(Nc2ccccc2)c2ccccc2)OCC2(CO1)COP(=O)(C(Nc1ccccc1)c1ccccc1)OC2,CCO,mol_529_solute_opt,mol_529_solvent_opt,50,22,288.25,-3.161616235054929,"3,9-bis(phenyl(phenylamino)methyl)-2,4,8,10-tetraoxa-3,9-diphosphaspiro[5.5] undecane 3,9-dioxide",ethanol
530.0,Nc1ncc(Br)nc1Br,CCO,mol_530_solute_opt,mol_530_solvent_opt,50,41,278.15,-1.8814233549507555,"2-amino-3,5-dibromopyrazine",ethanol
531.0,O=c1cc(-c2ccccc2)oc2c1ccc1ccccc12,CCO,mol_531_solute_opt,mol_531_solvent_opt,50,36,273.2,-2.2707031294390974,α-Naphthoflavone,ethanol
532.0,O=C(N[C@@H](Cc1c[nH]c2ccccc12)C(=O)O)OCc1ccccc1,CCO,mol_532_solute_opt,mol_532_solvent_opt,50,23,283.15,0.0169846801641125,N-benzyloxycarbonyl-L-tryptophan,ethanol
533.0,CC(C)(C)OC(=O)N[C@@H](CCC(N)=O)C(=O)O,CCO,mol_533_solute_opt,mol_533_solvent_opt,50,28,283.15,0.4131459504020596,Boc-L-glutamine,ethanol
534.0,O=C1c2ccccc2-c2ccc(Br)cc21,CCO,mol_534_solute_opt,mol_534_solvent_opt,50,38,278.15,-2.1202134362839904,2-bromo-9-fluorenone,ethanol
535.0,NC(=O)Nc1ccccc1,CCO,mol_535_solute_opt,mol_535_solvent_opt,50,39,283.15,-0.3790939159357442,1-phenylurea,ethanol
536.0,Nc1ccccn1,CCO,mol_536_solute_opt,mol_536_solvent_opt,50,33,273.15,0.9975419660102464,2-aminopyridine,ethanol
537.0,O=[N+]([O-])c1cc([N+](=O)[O-])c(Cl)cc1Cl,CCO,mol_537_solute_opt,mol_537_solvent_opt,50,37,298.15,-0.91865554883224,"1,5-dichloro-2,4-dinitrobenzene",ethanol
538.0,CC(C)(C)NCC(O)c1ccc(O)c(CO)c1,CCO,mol_538_solute_opt,mol_538_solvent_opt,50,26,283.15,-1.4212222270357646,Salbutamol,ethanol