pair_id,SMILES_Solute,SMILES_Solvent,Solute_name,Solvent_name,Total_conformers,Filtered_conformers,Temperature_K,LogS,Compound_Name,Solvent
1971.0,Cc1[nH]c(=O)c(C#N)cc1-c1ccncc1,CC(C)O,mol_1971_solute_opt,mol_1971_solvent_opt,50,38,278.15,-3.4885425968976334,Milrinone,isopropanol
1972.0,COc1cc2nc(Cl)nc(N)c2cc1OC,CC(C)O,mol_1972_solute_opt,mol_1972_solvent_opt,50,38,273.15,-2.722678852824693,"2-chloro-4-amino-6,7-dimethoxyquinazoline",isopropanol
1973.0,O=C(O)Cc1ccccc1[N+](=O)[O-],CC(C)O,mol_1973_solute_opt,mol_1973_solvent_opt,50,42,283.15,-0.6848816882232716,2-nitrophenylacetic acid,isopropanol
1974.0,C=CC(=O)NC(C)(C)CS(=O)(=O)O,CC(C)O,mol_1974_solute_opt,mol_1974_solvent_opt,50,43,283.15,-2.560284911068471,2-acrylamide-2-methylpropanesulfonic acid,isopropanol
1975.0,O=C1CC[C@@H](C(=O)N2CSC[C@H]2C(=O)O)N1,CC(C)O,mol_1975_solute_opt,mol_1975_solvent_opt,50,34,278.15,-2.917395758897612,Pidotimod,isopropanol
1976.0,COC(=O)c1c(Cl)nn(C)c1S(=O)(=O)NC(=O)Nc1nc(OC)cc(OC)n1,CC(C)O,mol_1976_solute_opt,mol_1976_solvent_opt,50,43,278.15,-4.358092925529661,Halosulfuron-methyl,isopropanol
1977.0,Nc1ccc(Cc2ccc(N)c(Cl)c2)cc1Cl,CC(C)O,mol_1977_solute_opt,mol_1977_solvent_opt,50,34,283.15,-0.5934054474913008,"4,4′-methylene-bis-(2-chloroaniline)",isopropanol
1978.0,O=Cc1cc(C=O)cc(C=O)c1,CC(C)O,mol_1978_solute_opt,mol_1978_solvent_opt,50,44,283.15,-2.21401339979834,"1,3,5-triformylbenzene",isopropanol
1979.0,O=C(O)[C@@H]1C[C@@H](O)CN1,CC(C)O,mol_1979_solute_opt,mol_1979_solvent_opt,50,36,283.15,-3.334772820845007,L-hydroxyproline,isopropanol
1980.0,CC(=O)O[C@]1(C(C)=O)CC[C@H]2[C@@H]3C=C(Cl)C4=CC(=O)[C@@H]5C[C@@H]5[C@]4(C)[C@H]3CC[C@@]21C,CC(C)O,mol_1980_solute_opt,mol_1980_solvent_opt,50,33,273.15,-2.239375195776109,Cyproterone acetate,isopropanol
1981.0,CCn1c2ccccc2c2cc(-n3nncc3-c3ccccc3)ccc21,CC(C)O,mol_1981_solute_opt,mol_1981_solvent_opt,50,30,279.4,-2.5385191206623388,MBQ-167,isopropanol
1982.0,NC(=O)[C@@H]1CCCN1,CC(C)O,mol_1982_solute_opt,mol_1982_solvent_opt,50,35,278.15,-0.1266508788162148,L-prolinamide,isopropanol
1983.0,O=C(O)[C@@H]1CSCN1,CC(C)O,mol_1983_solute_opt,mol_1983_solvent_opt,50,39,283.15,-3.310638272508053,L-thioproline,isopropanol
1984.0,O=C(O)c1cccc(O)c1O,CC(C)O,mol_1984_solute_opt,mol_1984_solvent_opt,50,43,278.15,-0.0016660243594353,"2,3-dihydroxybenzoic acid",isopropanol
1985.0,O[C@H]1[C@H](O)[C@@H](O)[C@H](O)[C@@H](O)[C@H]1O,CC(C)O,mol_1985_solute_opt,mol_1985_solvent_opt,50,39,283.15,-3.6233345312345735,Myo-inositol,isopropanol
1986.0,O=C(Nc1ccccc1)c1ccccc1O,CC(C)O,mol_1986_solute_opt,mol_1986_solvent_opt,50,33,283.15,-0.6438259143997369,Salicylanilide,isopropanol
1987.0,NC1CCSC1=O,CC(C)O,mol_1987_solute_opt,mol_1987_solvent_opt,50,43,283.15,-2.16179201608042,DL-homocysteine thiolactone hydrochloride,isopropanol
1988.0,CC(=O)N1CCC[C@H]1C(=O)O,CC(C)O,mol_1988_solute_opt,mol_1988_solvent_opt,50,39,283.15,-0.2074694339911668,N-acetyl-L-proline,isopropanol
1989.0,O=C(O)c1ccc(CO)cc1,CC(C)O,mol_1989_solute_opt,mol_1989_solvent_opt,50,37,283.15,-0.4385904673378206,4-(hydroxymethyl) benzoic acid,isopropanol
1990.0,CC(=O)Nc1ccccc1[N+](=O)[O-],CC(C)O,mol_1990_solute_opt,mol_1990_solvent_opt,50,37,278.15,-1.0021312424338409,o-nitroacetanilide,isopropanol
1991.0,COc1cc2c(cc1OC)C(=O)CC2,CC(C)O,mol_1991_solute_opt,mol_1991_solvent_opt,50,35,283.15,-1.100940367724858,"5,6-dimethoxy-1-indanone",isopropanol
1992.0,Cc1cc(Cl)cc(C(=O)O)c1N,CC(C)O,mol_1992_solute_opt,mol_1992_solvent_opt,50,43,278.15,-1.0111720660561094,2-amino-5-chloro-3-methylbenzoic acid,isopropanol
1993.0,O=C(O)CNCc1ccccc1,CC(C)O,mol_1993_solute_opt,mol_1993_solvent_opt,50,34,283.15,-3.1006787569338417,N-benzylglycine,isopropanol
1994.0,Nc1cccc(S(=O)(=O)c2cccc(N)c2)c1,CC(C)O,mol_1994_solute_opt,mol_1994_solvent_opt,50,30,283.15,-1.8518609006669264,"3,3′-diaminodiphenyl sulfone",isopropanol
1995.0,CSCCC(NC(C)=O)C(=O)O,CC(C)O,mol_1995_solute_opt,mol_1995_solvent_opt,50,38,283.15,-0.4039858597523243,N-acetyl-DL-methionine,isopropanol
1996.0,OCC(CO)(CO)CO,CC(C)O,mol_1996_solute_opt,mol_1996_solvent_opt,50,45,283.15,-2.1082636194954896,Pentaerythritol,isopropanol
1997.0,Cc1c(N)cccc1C(=O)O,CC(C)O,mol_1997_solute_opt,mol_1997_solvent_opt,50,36,288.15,-1.5874749081560329,3-amino-2-methylbenzoic acid,isopropanol
1998.0,O=C(O)COc1ccc(Cl)cc1,CC(C)O,mol_1998_solute_opt,mol_1998_solvent_opt,50,42,283.15,-0.5386329347730904,4-chlorophenoxyacetic acid,isopropanol
1999.0,c1ccc(-n2c(-c3cc(-c4nc5ccccc5n4-c4ccccc4)cc(-c4nc5ccccc5n4-c4ccccc4)c3)nc3ccccc32)cc1,CC(C)O,mol_1999_solute_opt,mol_1999_solvent_opt,50,21,283.15,-3.8335282662859993,"1,3,5-tris(1-phenyl-1H-benzimidazol-2-yl)benzene",isopropanol
2000.0,O=C(O)c1cccc(C(=O)O)n1,CC(C)O,mol_2000_solute_opt,mol_2000_solvent_opt,50,41,278.15,-1.2948102267787367,"2,6-pyridinedicarboxylic acid",isopropanol
2001.0,CC(C)(C)OC(=O)N1CCC[C@H]1C(=O)O,CC(C)O,mol_2001_solute_opt,mol_2001_solvent_opt,50,28,283.15,0.1529216207532767,Boc-L-proline,isopropanol
2002.0,Nc1nc(=O)[nH]cc1F,CC(C)O,mol_2002_solute_opt,mol_2002_solvent_opt,50,42,283.15,-2.674395197735794,5-fluorocytosine,isopropanol
2003.0,O=C(N[C@H](C(=O)O)c1ccccc1)OCc1ccccc1,CC(C)O,mol_2003_solute_opt,mol_2003_solvent_opt,50,36,283.15,-0.8467327799437694,N-carbobenzoxy-L-2-phenylglycine,isopropanol
2004.0,Nc1cccc(C(=O)O)c1,CC(C)O,mol_2004_solute_opt,mol_2004_solvent_opt,50,43,283.15,-1.0711872086443996,M-aminobenzoic acid,isopropanol
2005.0,O=C(O)c1cccc([N+](=O)[O-])c1O,CC(C)O,mol_2005_solute_opt,mol_2005_solvent_opt,50,43,278.15,-0.3728867879603021,3-nitrosalicylic acid,isopropanol
2006.0,CNC(=O)c1cc(Oc2ccc(NC(=O)Nc3ccc(Cl)c(C(F)(F)F)c3)cc2)ccn1,CC(C)O,mol_2006_solute_opt,mol_2006_solvent_opt,50,23,273.15,-2.1766645716777515,Sorafenib,isopropanol
2007.0,O=C1CCc2cc(OCCCCc3nnnn3C3CCCCC3)ccc2N1,CC(C)O,mol_2007_solute_opt,mol_2007_solvent_opt,50,33,273.15,-2.9497944786300887,Cilostazol,isopropanol
2008.0,Cn1c([N+](=O)[O-])cnc1N1CCN(S(C)(=O)=O)C1=O,CC(C)O,mol_2008_solute_opt,mol_2008_solvent_opt,50,47,293.2,-2.385231065594464,Satranidazole,isopropanol
2009.0,C#C[C@]1(O)C=C[C@H]2[C@@H]3CCC4=CC(=O)CC[C@@H]4[C@H]3CC[C@@]21CC,CC(C)O,mol_2009_solute_opt,mol_2009_solvent_opt,50,35,283.15,-1.6878506889149592,Gestodene,isopropanol
2010.0,CSc1nc2cc(Oc3cccc(Cl)c3Cl)c(Cl)cc2[nH]1,CC(C)O,mol_2010_solute_opt,mol_2010_solvent_opt,50,30,278.15,-1.542901089856692,Triclabendazole,isopropanol
2011.0,COc1cc(C=O)cc(OC)c1OC,CC(C)O,mol_2011_solute_opt,mol_2011_solvent_opt,50,40,278.15,-1.1956988248876117,"3,4,5-trimethoxybenzaldehyde",isopropanol
2012.0,O=C(O)CSc1ccc2ccccc2c1,CC(C)O,mol_2012_solute_opt,mol_2012_solvent_opt,50,35,278.15,-2.5213100886240376,(2-naphthylthio)acetic acid,isopropanol
2013.0,COC(=O)CC[C@H](N)C(=O)O,CC(C)O,mol_2013_solute_opt,mol_2013_solvent_opt,50,37,283.15,-2.9574975874841622,L-glutamic acid 5-methyl ester,isopropanol
2014.0,CO/N=C1\C[C@]2(C[C@@H]3C[C@@H](C/C=C(\C)C[C@@H](C)/C=C/C=C4\CO[C@@H]5[C@H](O)C(C)=C[C@@H](C(=O)O3)[C@]45O)O2)O[C@H](/C(C)=C/C(C)C)[C@H]1C,CC(C)O,mol_2014_solute_opt,mol_2014_solvent_opt,50,20,278.15,-0.970500740549163,Moxidectin,isopropanol
2015.0,O=C(O)CNC(=O)OCc1ccccc1,CC(C)O,mol_2015_solute_opt,mol_2015_solvent_opt,50,34,283.15,-0.4499617179721346,N-carbobenzyloxyglycine,isopropanol
2016.0,CC(C)(C)OC(=O)N[C@@H](CC(N)=O)C(=O)O,CC(C)O,mol_2016_solute_opt,mol_2016_solvent_opt,50,33,283.15,-1.74632790248648,Boc-L-asparagine,isopropanol
2017.0,O=C(O)c1ccc(-c2ccccc2)cc1,CC(C)O,mol_2017_solute_opt,mol_2017_solvent_opt,50,38,293.15,-1.2908926518121355,4-biphenylcarboxylic acid,isopropanol
2018.0,CCOc1ccc(C=O)cc1O,CC(C)O,mol_2018_solute_opt,mol_2018_solvent_opt,50,41,283.15,-1.3332653244543915,Iso-ethylvanillin,isopropanol
2019.0,CCOc1ccc(NC(C)=O)cc1,CC(C)O,mol_2019_solute_opt,mol_2019_solvent_opt,50,40,283.15,-0.9232265326397232,Phenacetin,isopropanol
2020.0,NC(=O)C[C@H](NC(=O)OCc1ccccc1)C(=O)O,CC(C)O,mol_2020_solute_opt,mol_2020_solvent_opt,50,39,283.15,-2.9451290753717974,N-benzyloxycarbonyl-L-asparagine,isopropanol
2021.0,CCc1nc(N)nc(N)c1-c1ccc(Cl)cc1,CC(C)O,mol_2021_solute_opt,mol_2021_solvent_opt,50,39,278.15,-2.507159179603986,Pyrimethamine,isopropanol
2022.0,C=CC(=O)NC(C)(C)CC(C)=O,CC(C)O,mol_2022_solute_opt,mol_2022_solvent_opt,50,34,272.15,0.3904993067372303,Diacetone acrylamide,isopropanol
2023.0,CC(=O)Nc1ccc([N+](=O)[O-])cc1,CC(C)O,mol_2023_solute_opt,mol_2023_solvent_opt,50,42,278.15,-1.656696553555035,p-Nitroacetanilide,isopropanol
2024.0,COC(=O)C1=C(C)NC(C)=C(C(=O)OCC(C)C)C1c1ccccc1[N+](=O)[O-],CC(C)O,mol_2024_solute_opt,mol_2024_solvent_opt,50,31,278.15,-1.1900655576054264,Nisoldipine,isopropanol
2025.0,NC(N)=NCCC[C@H](NC(=O)OCc1ccccc1)C(=O)O,CC(C)O,mol_2025_solute_opt,mol_2025_solvent_opt,50,34,283.15,-3.024458230218416,Nα-carbobenzyloxy-L-arginine,isopropanol
2026.0,O=C([O-])c1nc[nH]n1,CC(C)O,mol_2026_solute_opt,mol_2026_solvent_opt,50,39,278.55,-1.8911796948521729,"Methyl 1,2,4-triazole-3-carboxylate",isopropanol
2027.0,CS(N)(=O)=O,CC(C)O,mol_2027_solute_opt,mol_2027_solvent_opt,50,42,283.06,-0.7284536893281292,Methanesulfonamide,isopropanol
2028.0,O=C(O)c1cc([N+](=O)[O-])ccc1O,CC(C)O,mol_2028_solute_opt,mol_2028_solvent_opt,50,40,278.15,-0.4587183368345489,5-nitroSalicylic acid,isopropanol
2029.0,O=P1(C(Nc2ccccc2)c2ccccc2)OCC2(CO1)COP(=O)(C(Nc1ccccc1)c1ccccc1)OC2,CC(C)O,mol_2029_solute_opt,mol_2029_solvent_opt,50,27,283.45,-2.8495689950016043,"3,9-bis(phenyl(phenylamino)methyl)-2,4,8,10-tetraoxa-3,9-diphosphaspiro[5.5] undecane 3,9-dioxide",isopropanol
2030.0,Nc1ncc(Br)nc1Br,CC(C)O,mol_2030_solute_opt,mol_2030_solvent_opt,50,49,278.15,-2.163855518974423,"2-amino-3,5-dibromopyrazine",isopropanol
2031.0,Nc1nccnc1Cl,CC(C)O,mol_2031_solute_opt,mol_2031_solvent_opt,50,45,278.15,-1.573924960312262,2-amino-3-chloropyrazine,isopropanol
2032.0,O=c1cc(-c2ccccc2)oc2c1ccc1ccccc12,CC(C)O,mol_2032_solute_opt,mol_2032_solvent_opt,50,37,273.2,-2.198149601453642,α-Naphthoflavone,isopropanol
2033.0,O=C(N[C@@H](Cc1c[nH]c2ccccc12)C(=O)O)OCc1ccccc1,CC(C)O,mol_2033_solute_opt,mol_2033_solvent_opt,50,38,283.15,-0.3903009307203899,N-benzyloxycarbonyl-L-tryptophan,isopropanol
2034.0,OCCOc1ccc2ccccc2c1-c1c(OCCO)ccc2ccccc12,CC(C)O,mol_2034_solute_opt,mol_2034_solvent_opt,50,31,283.15,-1.9965700358840195,"2,2’-bis(2-hydroxyethoxy)-1,1′-binaphthalene",isopropanol
2035.0,CC(C)(C)OC(=O)N[C@@H](CCC(N)=O)C(=O)O,CC(C)O,mol_2035_solute_opt,mol_2035_solvent_opt,50,32,283.15,-0.1253980067240475,Boc-L-glutamine,isopropanol
2036.0,O=C1c2ccccc2-c2ccc(Br)cc21,CC(C)O,mol_2036_solute_opt,mol_2036_solvent_opt,50,41,278.15,-2.314025262936012,2-bromo-9-fluorenone,isopropanol
2037.0,NC(=O)Nc1ccccc1,CC(C)O,mol_2037_solute_opt,mol_2037_solvent_opt,50,40,283.15,-0.9189862247335854,1-phenylurea,isopropanol
2038.0,COc1cc(C(=O)O)ccc1O,CC(C)O,mol_2038_solute_opt,mol_2038_solvent_opt,50,38,283.15,-0.5411260506482776,Vanillic acid,isopropanol
2039.0,Nc1ccccn1,CC(C)O,mol_2039_solute_opt,mol_2039_solvent_opt,50,36,273.15,0.1210908701575042,2-aminopyridine,isopropanol
2040.0,O=[N+]([O-])c1cc([N+](=O)[O-])c(Cl)cc1Cl,CC(C)O,mol_2040_solute_opt,mol_2040_solvent_opt,50,46,298.15,-1.3767626517633047,"1,5-dichloro-2,4-dinitrobenzene",isopropanol
2041.0,CC(C)(C)NCC(O)c1ccc(O)c(CO)c1,CC(C)O,mol_2041_solute_opt,mol_2041_solvent_opt,50,28,283.15,-1.6099404066627083,Salbutamol,isopropanol
2042.0,CS(=O)(=O)Nc1ccc([N+](=O)[O-])cc1Oc1ccccc1,CC(C)O,mol_2042_solute_opt,mol_2042_solvent_opt,50,35,273.15,-2.9504671781375333,Nimesulide,isopropanol
2043.0,O=C(O)c1ccc(Br)cn1,CC(C)O,mol_2043_solute_opt,mol_2043_solvent_opt,50,41,278.15,-0.923204143307239,5-bromo-2-pyridinecarboxylic acid,isopropanol
2044.0,O=c1[nH]nc([N+](=O)[O-])[nH]1,CC(C)O,mol_2044_solute_opt,mol_2044_solvent_opt,50,44,278.15,-1.1930548988030725,"3-nitro-1,2,4-triazol-5-one",isopropanol
2045.0,CCCc1nc(C(C)(C)O)c(C(=O)OCC)n1Cc1ccc(-c2ccccc2-c2nnnn2C(c2ccccc2)(c2ccccc2)c2ccccc2)cc1,CC(C)O,mol_2045_solute_opt,mol_2045_solvent_opt,50,23,278.15,-3.142453847877634,N-trityl olmesartan ethyl ester,isopropanol
2046.0,O=C(O)c1cc([N+](=O)[O-])cc([N+](=O)[O-])c1,CC(C)O,mol_2046_solute_opt,mol_2046_solvent_opt,50,44,283.15,-0.7280860876487568,"3,5-dinitrobenzoic acid",isopropanol
2047.0,C[C@H]1[C@H](OC(=O)CCC(=O)O)O[C@@H]2O[C@@]3(C)CC[C@H]4[C@H](C)CC[C@@H]1[C@@]24OO3,CC(C)O,mol_2047_solute_opt,mol_2047_solvent_opt,50,31,283.06,-1.1432599445404996,Artesunate,isopropanol
2048.0,Nc1cccc2ccncc12,CC(C)O,mol_2048_solute_opt,mol_2048_solvent_opt,50,40,278.15,-1.423151757959786,8-isoquinolinamine,isopropanol
2049.0,CC(=O)c1ccc(O)cc1O,CC(C)O,mol_2049_solute_opt,mol_2049_solvent_opt,50,41,293.15,0.2924569175221462,"2′,4′-dihydroxyacetophenone",isopropanol
2050.0,Nc1ccnc(=O)[nH]1,CC(C)O,mol_2050_solute_opt,mol_2050_solvent_opt,50,43,288.15,-2.6800556535851703,Cytosine,isopropanol
2051.0,CCCCCCC1(CCCCCC)c2cc(Br)ccc2-c2ccc(Br)cc21,CC(C)O,mol_2051_solute_opt,mol_2051_solvent_opt,50,24,283.15,-1.9909033606094693,"9,9-dihexyl-2,7-dibromofluorene",isopropanol
2052.0,O=c1cnc(Br)c[nH]1,CC(C)O,mol_2052_solute_opt,mol_2052_solvent_opt,50,45,278.15,-1.4635663061797706,2-bromo-5-hydroxypyrazine,isopropanol
2053.0,Nc1cnc(Br)cn1,CC(C)O,mol_2053_solute_opt,mol_2053_solvent_opt,50,43,278.15,-1.4251555929316686,2-amino-5-bromopyrazine,isopropanol
2054.0,CC(=O)Oc1cc(C)c(OC(C)=O)c2ccccc12,CC(C)O,mol_2054_solute_opt,mol_2054_solvent_opt,50,36,283.1,-1.6099165480988424,Menadiol diacetate,isopropanol
2055.0,c1ccc(-c2ccc(C(c3ccccc3)n3ccnc3)cc2)cc1,CC(C)O,mol_2055_solute_opt,mol_2055_solvent_opt,50,39,283.16,-1.741227556581722,Bifonazole,isopropanol
2056.0,c1ccc(-n2c3ccccc3c3ccccc32)cc1,CC(C)O,mol_2056_solute_opt,mol_2056_solvent_opt,50,37,278.15,-1.8756076498320988,9-phenylcarbazole,isopropanol
2057.0,Nc1ccc(Br)nn1,CC(C)O,mol_2057_solute_opt,mol_2057_solvent_opt,50,39,278.15,-1.4342095217181212,3-amino-6-bromopyridazine,isopropanol
2058.0,O=C(Nc1ccncc1)c1cc(C(=O)Nc2ccncc2)cc(C(=O)Nc2ccncc2)c1,CC(C)O,mol_2058_solute_opt,mol_2058_solvent_opt,50,27,283.15,-2.455823068592846,"N1,N3,N5-tris(pyridin-4-yl)benzene-1,3,5-tricarboxamide (TPBTC)",isopropanol
2059.0,Cc1ccc2cc(Br)ccc2n1,CC(C)O,mol_2059_solute_opt,mol_2059_solvent_opt,50,35,278.15,-1.5957535737802002,6-bromo-2-methylquinoline,isopropanol
2060.0,NC(=O)c1ccncc1,CC(C)O,mol_2060_solute_opt,mol_2060_solvent_opt,50,40,278.15,-0.6765236804911672,Isonicotinamide,isopropanol
2061.0,CC(O)(CS(=O)(=O)c1ccc(F)cc1)C(=O)Nc1ccc(C#N)c(C(F)(F)F)c1,CC(C)O,mol_2061_solute_opt,mol_2061_solvent_opt,50,33,278.15,-2.4647449054186272,Bicalutamide,isopropanol
2062.0,O=S1(=O)OC(c2ccc(O)cc2)(c2ccc(O)cc2)c2ccccc21,CC(C)O,mol_2062_solute_opt,mol_2062_solvent_opt,50,37,278.15,-3.5048445275694555,Phenol red,isopropanol
2063.0,O=C(O)/C=C/c1cccc(O)c1,CC(C)O,mol_2063_solute_opt,mol_2063_solvent_opt,50,37,293.15,-0.0702324475571627,trans-3-hydroxycinnamic acid,isopropanol
2064.0,O=C(N[C@@H](CO)C(=O)O)OCc1ccccc1,CC(C)O,mol_2064_solute_opt,mol_2064_solvent_opt,50,27,283.15,-0.2129791279857956,N-benzyloxycarbonyl-L-serine,isopropanol
2065.0,Oc1ccc(C2(c3ccc(O)cc3)CCCCC2)cc1,CC(C)O,mol_2065_solute_opt,mol_2065_solvent_opt,50,34,288.15,-1.1546648140100388,Bisphenol Z (BPZ),isopropanol
2066.0,Cc1cccc(C(=O)O)c1,CC(C)O,mol_2066_solute_opt,mol_2066_solvent_opt,50,45,296.05,0.3015295359832527,m-methylbenzoic acid,isopropanol
2067.0,O=C(O)c1cccc(C(=O)O)c1,CC(C)O,mol_2067_solute_opt,mol_2067_solvent_opt,50,39,304.65,-1.2244784588403843,Isophthalic acid,isopropanol
2068.0,COC(=O)c1ccnc(N)c1,CC(C)O,mol_2068_solute_opt,mol_2068_solvent_opt,50,34,278.15,-1.288887958894542,Methyl 2-aminopyridine-4-carboxylate,isopropanol
2069.0,CC(C)C[C@H](N)C(=O)O,CC(C)O,mol_2069_solute_opt,mol_2069_solvent_opt,50,35,283.15,-2.6842737514802963,L-leucine,isopropanol
2070.0,CC(C)[C@H](N)C(=O)O,CC(C)O,mol_2070_solute_opt,mol_2070_solvent_opt,50,35,283.15,-3.6747291343449353,L-valine,isopropanol
2071.0,CC1COC(Cn2cncn2)(c2ccc(Oc3ccc(Cl)cc3)cc2Cl)O1,CC(C)O,mol_2071_solute_opt,mol_2071_solvent_opt,50,31,278.15,-1.3625097466869152,Difenoconazole,isopropanol
2072.0,Oc1ccccc1C=Nc1c(F)cccc1F,CC(C)O,mol_2072_solute_opt,mol_2072_solvent_opt,50,42,273.15,-0.967531932122962,"2-[[(2,6-difluorophenyl)imino]methyl]phenol",isopropanol
2073.0,c1ccc2c(c1)Cc1ccccc1-2,CC(C)O,mol_2073_solute_opt,mol_2073_solvent_opt,50,41,278.15,-1.2712611839654564,Fluorene,isopropanol
2074.0,O=C(O)CNC(=O)C(=O)NCC(=O)O,CC(C)O,mol_2074_solute_opt,mol_2074_solvent_opt,50,38,293.15,-3.997160249487226,"N,N′-oxalyldiglycine",isopropanol
2075.0,O=C(O)c1cccc(O)c1,CC(C)O,mol_2075_solute_opt,mol_2075_solvent_opt,50,42,278.15,0.1615045215784276,m-Hydroxybenzoic acid,isopropanol
2076.0,O=C1C(CCS(=O)c2ccccc2)C(=O)N(c2ccccc2)N1c1ccccc1,CC(C)O,mol_2076_solute_opt,mol_2076_solvent_opt,50,30,283.15,-2.470335250238402,Sulfinpyrazone,isopropanol
2077.0,N[C@@H](Cc1ccccc1)C(=O)O,CC(C)O,mol_2077_solute_opt,mol_2077_solvent_opt,50,38,283.15,-3.261837744483519,L-phenylalanine,isopropanol
2078.0,OC[C@@H](O)CN1CCN(c2ccccc2)CC1,CC(C)O,mol_2078_solute_opt,mol_2078_solvent_opt,50,35,283.1,-2.715309374118136,Levodropropizine,isopropanol
2079.0,Nc1nonc1-c1no[n+]([O-])c1-c1nonc1N,CC(C)O,mol_2079_solute_opt,mol_2079_solvent_opt,50,35,283.15,-1.5295816445657724,"3,4-bis(4′-aminofurazan-3′-yl)furoxan",isopropanol
2080.0,CC(C)(C)c1ccc(-c2nnc(-c3ccc(-c4ccccc4)cc3)o2)cc1,CC(C)O,mol_2080_solute_opt,mol_2080_solvent_opt,50,27,283.15,-2.0266775718372108,"2-(4-tert-butylphenyl)-5-(4-biphenyl)-1,3,4-oxadiazole",isopropanol
2081.0,NC(=O)CS(=O)C(c1ccccc1)c1ccccc1,CC(C)O,mol_2081_solute_opt,mol_2081_solvent_opt,50,33,283.2,-2.0983006549416165,Modafinil,isopropanol
2082.0,COc1ccc(C(=O)c2ccc(OC)cc2)cc1,CC(C)O,mol_2082_solute_opt,mol_2082_solvent_opt,50,28,293.15,-1.9856839992159383,"4,4′-dimethoxybenzophenone",isopropanol
2083.0,CC(C)(N)C(=O)O,CC(C)O,mol_2083_solute_opt,mol_2083_solvent_opt,50,37,283.15,-2.682888223772246,α-Aminoisobutyric Acid,isopropanol
2084.0,CC(=O)N[C@H](C(=O)O)C(C)C,CC(C)O,mol_2084_solute_opt,mol_2084_solvent_opt,50,31,283.15,-0.2584343858331663,N-acetyl-L-valine,isopropanol
2085.0,N#CCC(N)=O,CC(C)O,mol_2085_solute_opt,mol_2085_solvent_opt,50,36,283.15,-1.265352850934082,2-cyanoacetamide,isopropanol
2086.0,COc1ccc(/C=C/C(=O)O)cc1OC,CC(C)O,mol_2086_solute_opt,mol_2086_solvent_opt,50,36,283.15,-1.6983595526051576,"3,4-dimethoxycinnamic acid",isopropanol
2087.0,NNC(=O)c1ccccc1,CC(C)O,mol_2087_solute_opt,mol_2087_solvent_opt,50,41,283.15,-0.8239628822304186,Benzhydrazide,isopropanol
2088.0,NNC(=O)c1ccccc1O,CC(C)O,mol_2088_solute_opt,mol_2088_solvent_opt,50,39,283.15,-1.0189933182947135,2-Hydroxybenzohydrazide,isopropanol
2089.0,COC(=O)c1cc(OC)c2c(c1-c1c(C(=O)OC)cc(OC)c3c1OCO3)OCO2,CC(C)O,mol_2089_solute_opt,mol_2089_solvent_opt,50,23,293.15,-3.0747404819150206,Bifendate,isopropanol
2090.0,OCC1(O)OC[C@@H](O)[C@@H](O)[C@H]1O,CC(C)O,mol_2090_solute_opt,mol_2090_solvent_opt,50,39,283.15,-1.7100131315398388,D-psicose,isopropanol
2091.0,CC(C)[C@H](NC(=O)OCC1c2ccccc2-c2ccccc21)C(=O)O,CC(C)O,mol_2091_solute_opt,mol_2091_solvent_opt,50,37,283.15,-0.8518303258365927,Fmoc-L-valine,isopropanol
2092.0,O=[N+]([O-])c1ccc(Oc2ccc([N+](=O)[O-])cc2)cc1,CC(C)O,mol_2092_solute_opt,mol_2092_solvent_opt,50,39,283.15,-2.736406315391412,"4,4′-dinitrodiphenyl ether",isopropanol
2093.0,CCCCN(CCCC)c1ccc(C(=O)c2ccccc2C(=O)O)c(O)c1,CC(C)O,mol_2093_solute_opt,mol_2093_solvent_opt,50,27,283.15,-1.6286411115930748,2-[4-(dibutylamino)-2-hydroxybenzoyl] benzoic acid,isopropanol
2094.0,c1ccc2[nH]cnc2c1,CC(C)O,mol_2094_solute_opt,mol_2094_solvent_opt,50,44,283.15,-0.0466416335847507,Benzimidazole,isopropanol
2095.0,CC[C@H](C)[C@H](N)C(=O)O,CC(C)O,mol_2095_solute_opt,mol_2095_solvent_opt,50,37,283.15,-1.710604075524351,L-isoleucine,isopropanol
2096.0,Cc1cc(Cl)ccc1OCC(=O)O,CC(C)O,mol_2096_solute_opt,mol_2096_solvent_opt,50,36,278.15,0.2712334928732489,2-methyl-4-chlorophenoxyacetic acid,isopropanol
2097.0,Cc1cccc2sc(NN)nc12,CC(C)O,mol_2097_solute_opt,mol_2097_solvent_opt,50,38,273.15,-1.9060653835394208,2-hydrazino-4-methylbenzothiazole,isopropanol
2098.0,CCC[C@@H]1CC(=O)N([C@@H](CC)C(N)=O)C1,CC(C)O,mol_2098_solute_opt,mol_2098_solvent_opt,50,31,278.15,0.2863128034355234,Brivaracetam,isopropanol