pair_id,SMILES_Solute,SMILES_Solvent,Solute_name,Solvent_name,Total_conformers,Filtered_conformers,Temperature_K,LogS,Compound_Name,Solvent
3267.0,O=C(O)c1ccc(-c2ccccc2)cc1,CCOC(C)=O,mol_3267_solute_opt,mol_3267_solvent_opt,50,42,293.15,-1.172103327260292,4-biphenylcarboxylic acid,ethyl acetate
3268.0,CCOc1ccc(C=O)cc1O,CCOC(C)=O,mol_3268_solute_opt,mol_3268_solvent_opt,50,43,283.15,-0.7572293990274221,Iso-ethylvanillin,ethyl acetate
3269.0,CCOc1ccc(NC(C)=O)cc1,CCOC(C)=O,mol_3269_solute_opt,mol_3269_solvent_opt,50,36,283.15,-1.1850963317027736,Phenacetin,ethyl acetate
3270.0,CCc1nc(N)nc(N)c1-c1ccc(Cl)cc1,CCOC(C)=O,mol_3270_solute_opt,mol_3270_solvent_opt,50,41,278.15,-1.8307086279216105,Pyrimethamine,ethyl acetate
3271.0,C=CC(=O)NC(C)(C)CC(C)=O,CCOC(C)=O,mol_3271_solute_opt,mol_3271_solvent_opt,50,34,272.05,0.3198609269193891,Diacetone acrylamide,ethyl acetate
3272.0,CC(=O)Nc1ccc([N+](=O)[O-])cc1,CCOC(C)=O,mol_3272_solute_opt,mol_3272_solvent_opt,50,41,278.15,-1.4279491447111647,p-Nitroacetanilide,ethyl acetate
3273.0,COC(=O)C1=C(C)NC(C)=C(C(=O)OCC(C)C)C1c1ccccc1[N+](=O)[O-],CCOC(C)=O,mol_3273_solute_opt,mol_3273_solvent_opt,50,30,278.15,-0.7702500836096374,Nisoldipine,ethyl acetate
3274.0,CC(=O)OC(OC(C)=O)c1ccc([N+](=O)[O-])o1,CCOC(C)=O,mol_3274_solute_opt,mol_3274_solvent_opt,50,38,278.15,-1.6800268697632283,2-(diacetoxymethyl)-5-nitrofuran,ethyl acetate
3275.0,NC(N)=NCCC[C@H](NC(=O)OCc1ccccc1)C(=O)O,CCOC(C)=O,mol_3275_solute_opt,mol_3275_solvent_opt,50,39,283.15,-3.3099092813116053,Nα-carbobenzyloxy-L-arginine,ethyl acetate
3276.0,CC(C)OC(=O)[C@H](C)N[P@](=O)(OC[C@H]1O[C@@H](n2ccc(=O)[nH]c2=O)[C@](C)(F)[C@@H]1O)Oc1ccccc1,CCOC(C)=O,mol_3276_solute_opt,mol_3276_solvent_opt,50,31,278.15,-1.5603304596008971,Sofosbuvir,ethyl acetate
3277.0,CS(N)(=O)=O,CCOC(C)=O,mol_3277_solute_opt,mol_3277_solvent_opt,50,40,283.26,-0.4982190276557532,Methanesulfonamide,ethyl acetate
3278.0,O=C(O)c1cc([N+](=O)[O-])ccc1O,CCOC(C)=O,mol_3278_solute_opt,mol_3278_solvent_opt,50,40,278.15,-0.6681514622306504,5-nitroSalicylic acid,ethyl acetate
3279.0,O=c1cc(-c2ccccc2)oc2c1ccc1ccccc12,CCOC(C)=O,mol_3279_solute_opt,mol_3279_solvent_opt,50,37,273.15,-1.5441463866988123,α-Naphthoflavone,ethyl acetate
3280.0,O=C(N[C@@H](Cc1c[nH]c2ccccc12)C(=O)O)OCc1ccccc1,CCOC(C)=O,mol_3280_solute_opt,mol_3280_solvent_opt,50,35,283.15,-0.2778393262862442,N-benzyloxycarbonyl-L-tryptophan,ethyl acetate
3281.0,OCCOc1ccc2ccccc2c1-c1c(OCCO)ccc2ccccc12,CCOC(C)=O,mol_3281_solute_opt,mol_3281_solvent_opt,50,31,283.15,-1.627978134348587,"2,2’-bis(2-hydroxyethoxy)-1,1′-binaphthalene",ethyl acetate
3282.0,NCC(CC(=O)O)c1ccc(Cl)cc1,CCOC(C)=O,mol_3282_solute_opt,mol_3282_solvent_opt,50,36,273.15,-1.3620858171721406,Baclofen,ethyl acetate
3283.0,CC(C)(C)OC(=O)N[C@@H](CCC(N)=O)C(=O)O,CCOC(C)=O,mol_3283_solute_opt,mol_3283_solvent_opt,50,41,283.15,-1.685326666285755,Boc-L-glutamine,ethyl acetate
3284.0,O=C1c2ccccc2-c2ccc(Br)cc21,CCOC(C)=O,mol_3284_solute_opt,mol_3284_solvent_opt,50,46,278.15,-1.2679614731353157,2-bromo-9-fluorenone,ethyl acetate
3285.0,NC(=O)Nc1ccccc1,CCOC(C)=O,mol_3285_solute_opt,mol_3285_solvent_opt,50,43,283.15,-0.8108584311548859,1-phenylurea,ethyl acetate
3286.0,O=[N+]([O-])c1cc([N+](=O)[O-])c(Cl)cc1Cl,CCOC(C)=O,mol_3286_solute_opt,mol_3286_solvent_opt,50,46,298.15,0.3185286973319108,"1,5-dichloro-2,4-dinitrobenzene",ethyl acetate
3287.0,CC(C)(C)NCC(O)c1ccc(O)c(CO)c1,CCOC(C)=O,mol_3287_solute_opt,mol_3287_solvent_opt,50,34,283.15,-2.7173552027983874,Salbutamol,ethyl acetate
3288.0,O=C(O)c1ccc(Br)cn1,CCOC(C)=O,mol_3288_solute_opt,mol_3288_solvent_opt,50,45,278.15,-1.2887071939040493,5-bromo-2-pyridinecarboxylic acid,ethyl acetate
3289.0,O=c1[nH]nc([N+](=O)[O-])[nH]1,CCOC(C)=O,mol_3289_solute_opt,mol_3289_solvent_opt,50,45,278.15,-1.7421235107035116,"3-nitro-1,2,4-triazol-5-one",ethyl acetate
3290.0,CCCc1nc(C(C)(C)O)c(C(=O)OCC)n1Cc1ccc(-c2ccccc2-c2nnnn2C(c2ccccc2)(c2ccccc2)c2ccccc2)cc1,CCOC(C)=O,mol_3290_solute_opt,mol_3290_solvent_opt,50,28,278.15,-1.7341679828156047,N-trityl olmesartan ethyl ester,ethyl acetate
3291.0,O=C(O)c1cc([N+](=O)[O-])cc([N+](=O)[O-])c1,CCOC(C)=O,mol_3291_solute_opt,mol_3291_solvent_opt,50,47,283.15,-0.4258386977364997,"3,5-dinitrobenzoic acid",ethyl acetate
3292.0,C[C@H]1[C@H](OC(=O)CCC(=O)O)O[C@@H]2O[C@@]3(C)CC[C@H]4[C@H](C)CC[C@@H]1[C@@]24OO3,CCOC(C)=O,mol_3292_solute_opt,mol_3292_solvent_opt,50,29,283.17,-0.6768137224618169,Artesunate,ethyl acetate
3293.0,CC(=O)c1ccc(O)cc1O,CCOC(C)=O,mol_3293_solute_opt,mol_3293_solvent_opt,50,43,293.15,0.1355488054544499,"2′,4′-dihydroxyacetophenone",ethyl acetate
3294.0,CCCCCCC1(CCCCCC)c2cc(Br)ccc2-c2ccc(Br)cc21,CCOC(C)=O,mol_3294_solute_opt,mol_3294_solvent_opt,50,32,283.15,-0.3287693712088773,"9,9-dihexyl-2,7-dibromofluorene",ethyl acetate
3295.0,Clc1ccccc1C(c1ccccc1)(c1ccccc1)n1ccnc1,CCOC(C)=O,mol_3295_solute_opt,mol_3295_solvent_opt,50,38,283.11,-1.1277736039765878,Clotrimazole,ethyl acetate
3296.0,CC(=O)Oc1cc(C)c(OC(C)=O)c2ccccc12,CCOC(C)=O,mol_3296_solute_opt,mol_3296_solvent_opt,50,38,283.1,-0.1143338485106204,Menadiol diacetate,ethyl acetate
3297.0,NC(=O)CC[C@H](N)C(=O)O,CCOC(C)=O,mol_3297_solute_opt,mol_3297_solvent_opt,50,43,283.15,-3.5162471842557124,L-glutamine,ethyl acetate
3298.0,Cc1cc(C#N)c(Nc2ccccc2[N+](=O)[O-])s1,CCOC(C)=O,mol_3298_solute_opt,mol_3298_solvent_opt,50,39,293.15,-0.6839511273216408,5-methyl-2-[(2-nitrophenyl)amino]-3-thiophenecarbonitrile,ethyl acetate
3299.0,c1ccc(-c2ccc(C(c3ccccc3)n3ccnc3)cc2)cc1,CCOC(C)=O,mol_3299_solute_opt,mol_3299_solvent_opt,50,38,283.16,-1.6060877408721534,Bifonazole,ethyl acetate
3300.0,CC(C)CCC[C@@H](C)[C@H]1CC[C@H]2[C@@H]3CC=C4C[C@@H](O)CC[C@]4(C)[C@H]3CC[C@]12C,CCOC(C)=O,mol_3300_solute_opt,mol_3300_solvent_opt,50,36,283.2,-1.2089989111021504,Cholesterol,ethyl acetate
3301.0,O=C(Nc1ccncc1)c1cc(C(=O)Nc2ccncc2)cc(C(=O)Nc2ccncc2)c1,CCOC(C)=O,mol_3301_solute_opt,mol_3301_solvent_opt,50,30,283.15,-2.928415595529876,"N1,N3,N5-tris(pyridin-4-yl)benzene-1,3,5-tricarboxamide (TPBTC)",ethyl acetate
3302.0,Cc1ccc2cc(Br)ccc2n1,CCOC(C)=O,mol_3302_solute_opt,mol_3302_solvent_opt,50,45,278.15,-1.1212733655196014,6-bromo-2-methylquinoline,ethyl acetate
3303.0,NC(=O)N/N=C/c1ccc([N+](=O)[O-])o1,CCOC(C)=O,mol_3303_solute_opt,mol_3303_solvent_opt,50,39,278.15,-3.096192562854775,5-nitrofurazone,ethyl acetate
3304.0,NC(=O)c1ccncc1,CCOC(C)=O,mol_3304_solute_opt,mol_3304_solvent_opt,50,46,278.15,-1.5461745296535632,Isonicotinamide,ethyl acetate
3305.0,CC(O)(CS(=O)(=O)c1ccc(F)cc1)C(=O)Nc1ccc(C#N)c(C(F)(F)F)c1,CCOC(C)=O,mol_3305_solute_opt,mol_3305_solvent_opt,50,38,278.15,-1.824753947561632,Bicalutamide,ethyl acetate
3306.0,O=S1(=O)OC(c2ccc(O)cc2)(c2ccc(O)cc2)c2ccccc21,CCOC(C)=O,mol_3306_solute_opt,mol_3306_solvent_opt,50,46,278.15,-3.27127900314163,Phenol red,ethyl acetate
3307.0,O=C(O)/C=C/c1cccc(O)c1,CCOC(C)=O,mol_3307_solute_opt,mol_3307_solvent_opt,50,39,293.15,-0.7348015676102974,trans-3-hydroxycinnamic acid,ethyl acetate
3308.0,O=C(N[C@@H](CO)C(=O)O)OCc1ccccc1,CCOC(C)=O,mol_3308_solute_opt,mol_3308_solvent_opt,50,43,283.15,-0.8220926312195963,N-benzyloxycarbonyl-L-serine,ethyl acetate
3309.0,Oc1ccc(C2(c3ccc(O)cc3)CCCCC2)cc1,CCOC(C)=O,mol_3309_solute_opt,mol_3309_solvent_opt,50,38,288.15,-0.2054767857339289,Bisphenol Z (BPZ),ethyl acetate
3310.0,CC(C)C[C@H](N)C(=O)O,CCOC(C)=O,mol_3310_solute_opt,mol_3310_solvent_opt,50,44,283.15,-2.791972161425007,L-leucine,ethyl acetate
3311.0,CC(C)[C@H](N)C(=O)O,CCOC(C)=O,mol_3311_solute_opt,mol_3311_solvent_opt,50,43,283.15,-3.49323212594144,L-valine,ethyl acetate
3312.0,Oc1ccccc1C=Nc1c(F)cccc1F,CCOC(C)=O,mol_3312_solute_opt,mol_3312_solvent_opt,50,40,273.15,0.0142997380408391,"2-[[(2,6-difluorophenyl)imino]methyl]phenol",ethyl acetate
3313.0,c1ccc2c(c1)Cc1ccccc1-2,CCOC(C)=O,mol_3313_solute_opt,mol_3313_solvent_opt,50,43,278.15,-0.2987168671623594,Fluorene,ethyl acetate
3314.0,O=C(O)CNC(=O)C(=O)NCC(=O)O,CCOC(C)=O,mol_3314_solute_opt,mol_3314_solvent_opt,50,40,293.15,-4.357060366875459,"N,N′-oxalyldiglycine",ethyl acetate
3315.0,O=C(O)c1cccc(O)c1,CCOC(C)=O,mol_3315_solute_opt,mol_3315_solvent_opt,50,44,278.15,-0.3888954597281612,m-Hydroxybenzoic acid,ethyl acetate
3316.0,O=C1CCCC(=O)C1,CCOC(C)=O,mol_3316_solute_opt,mol_3316_solvent_opt,50,44,288.15,-0.8800278632363396,"1,3-cyclohexanedione",ethyl acetate
3317.0,Nc1cccc(O)c1,CCOC(C)=O,mol_3317_solute_opt,mol_3317_solvent_opt,50,43,288.15,-0.1436198270673201,3-aminophenol,ethyl acetate
3318.0,N[C@@H](Cc1ccccc1)C(=O)O,CCOC(C)=O,mol_3318_solute_opt,mol_3318_solvent_opt,50,38,283.15,-3.860749865991228,L-phenylalanine,ethyl acetate
3319.0,OC[C@@H](O)CN1CCN(c2ccccc2)CC1,CCOC(C)=O,mol_3319_solute_opt,mol_3319_solvent_opt,50,39,283.1,-2.4106155448841027,Levodropropizine,ethyl acetate
3320.0,Nc1nonc1-c1no[n+]([O-])c1-c1nonc1N,CCOC(C)=O,mol_3320_solute_opt,mol_3320_solvent_opt,50,39,283.15,-0.1073255128583805,"3,4-bis(4′-aminofurazan-3′-yl)furoxan",ethyl acetate
3321.0,CC(C)(C)c1ccc(-c2nnc(-c3ccc(-c4ccccc4)cc3)o2)cc1,CCOC(C)=O,mol_3321_solute_opt,mol_3321_solvent_opt,50,30,283.15,-0.92272303790162,"2-(4-tert-butylphenyl)-5-(4-biphenyl)-1,3,4-oxadiazole",ethyl acetate
3322.0,NC(=O)CS(=O)C(c1ccccc1)c1ccccc1,CCOC(C)=O,mol_3322_solute_opt,mol_3322_solvent_opt,50,37,273.2,-2.315847331865692,Modafinil,ethyl acetate
3323.0,O=c1ccc2cc(O)c(O)cc2o1,CCOC(C)=O,mol_3323_solute_opt,mol_3323_solvent_opt,50,42,273.15,-0.6870552510410803,Esculetin,ethyl acetate
3324.0,Cc1c(Cl)cccc1Nc1ccccc1C(=O)O,CCOC(C)=O,mol_3324_solute_opt,mol_3324_solvent_opt,50,36,283.15,-1.2019531802093155,Tolfenamic acid,ethyl acetate
3325.0,COc1ccc(C(=O)c2ccc(OC)cc2)cc1,CCOC(C)=O,mol_3325_solute_opt,mol_3325_solvent_opt,50,37,293.15,-1.0284834353839816,"4,4′-dimethoxybenzophenone",ethyl acetate
3326.0,CC(C)(N)C(=O)O,CCOC(C)=O,mol_3326_solute_opt,mol_3326_solvent_opt,50,44,283.15,-2.769692204929574,α-Aminoisobutyric Acid,ethyl acetate
3327.0,CC(=O)N[C@H](C(=O)O)C(C)C,CCOC(C)=O,mol_3327_solute_opt,mol_3327_solvent_opt,50,41,283.15,-1.5379458293057278,N-acetyl-L-valine,ethyl acetate
3328.0,O=C1CC[C@@H](C(=O)O)N1,CCOC(C)=O,mol_3328_solute_opt,mol_3328_solvent_opt,50,45,283.15,-2.157593253534637,L-pyroglutamic acid,ethyl acetate
3329.0,COc1ccc(/C=C/C(=O)O)cc1OC,CCOC(C)=O,mol_3329_solute_opt,mol_3329_solvent_opt,50,34,283.15,-1.4451609815060498,"3,4-dimethoxycinnamic acid",ethyl acetate
3330.0,c1ccc(-n2c3ccccc3c3ccccc32)cc1,CCOC(C)=O,mol_3330_solute_opt,mol_3330_solvent_opt,50,40,283.15,0.0118649655155844,9-phenylcarbazole,ethyl acetate
3331.0,CCOc1ccc(OCC)cc1,CCOC(C)=O,mol_3331_solute_opt,mol_3331_solvent_opt,50,43,278.15,-0.0573480706944215,"1,4-diethoxybenzene",ethyl acetate
3332.0,COC(=O)c1cc(OC)c2c(c1-c1c(C(=O)OC)cc(OC)c3c1OCO3)OCO2,CCOC(C)=O,mol_3332_solute_opt,mol_3332_solvent_opt,50,31,293.15,-1.5097730983562274,Bifendate,ethyl acetate
3333.0,OCC1(O)OC[C@@H](O)[C@@H](O)[C@H]1O,CCOC(C)=O,mol_3333_solute_opt,mol_3333_solvent_opt,50,41,283.15,-2.09778202237706,D-psicose,ethyl acetate
3334.0,CC(=O)O[C@H]1NC(=O)[C@@H]1[C@@H](C)O[Si](C)(C)C(C)(C)C,CCOC(C)=O,mol_3334_solute_opt,mol_3334_solvent_opt,50,36,293.15,0.2847699853752748,4-acetoxyazetidin-2-one,ethyl acetate
3335.0,Oc1ccccc1C=N[C@@H]1CCCC[C@H]1N=Cc1ccccc1O,CCOC(C)=O,mol_3335_solute_opt,mol_3335_solvent_opt,50,36,273.15,-0.5861642979969377,"Bis(salicylidene)-trans-1,2-cyclo-hexanediamine",ethyl acetate
3336.0,O=[N+]([O-])c1ccc(Oc2ccc([N+](=O)[O-])cc2)cc1,CCOC(C)=O,mol_3336_solute_opt,mol_3336_solvent_opt,50,45,283.15,-0.8539490572473606,"4,4′-dinitrodiphenyl ether",ethyl acetate
3337.0,CCCCN(CCCC)c1ccc(C(=O)c2ccccc2C(=O)O)c(O)c1,CCOC(C)=O,mol_3337_solute_opt,mol_3337_solvent_opt,50,31,283.15,-1.3492673346620143,2-[4-(dibutylamino)-2-hydroxybenzoyl] benzoic acid,ethyl acetate
3338.0,c1ccc2[nH]cnc2c1,CCOC(C)=O,mol_3338_solute_opt,mol_3338_solvent_opt,50,45,283.15,-1.071133091754485,Benzimidazole,ethyl acetate
3339.0,CC[C@H](C)[C@H](N)C(=O)O,CCOC(C)=O,mol_3339_solute_opt,mol_3339_solvent_opt,50,38,283.15,-2.3845513274297283,L-isoleucine,ethyl acetate
3340.0,Cc1cc(Cl)ccc1OCC(=O)O,CCOC(C)=O,mol_3340_solute_opt,mol_3340_solvent_opt,50,37,278.15,0.0677258221919561,2-methyl-4-chlorophenoxyacetic acid,ethyl acetate
3341.0,Cc1cccc2sc(NN)nc12,CCOC(C)=O,mol_3341_solute_opt,mol_3341_solvent_opt,50,42,273.15,-1.4224840309485098,2-hydrazino-4-methylbenzothiazole,ethyl acetate
3342.0,CCC[C@@H]1CC(=O)N([C@@H](CC)C(N)=O)C1,CCOC(C)=O,mol_3342_solute_opt,mol_3342_solvent_opt,50,43,278.15,-0.3985713408409746,Brivaracetam,ethyl acetate
3343.0,Cc1nc2n(c(=O)c1CCN1CCC(c3noc4cc(F)ccc34)CC1)CCCC2O,CCOC(C)=O,mol_3343_solute_opt,mol_3343_solvent_opt,50,35,288.15,-3.2134695797133808,Paliperidone,ethyl acetate
3344.0,CC(C(=O)O)c1ccc(CC2CCCC2=O)cc1,CCOC(C)=O,mol_3344_solute_opt,mol_3344_solvent_opt,50,35,283.15,-0.2447959734337526,Loxoprofen,ethyl acetate
3345.0,O=C(O)c1ccc(Cl)cc1Cl,CCOC(C)=O,mol_3345_solute_opt,mol_3345_solvent_opt,50,42,273.15,-0.6032853709405752,"2,4-dichlorobenzoic acid",ethyl acetate
3346.0,Cn1nccc1O,CCOC(C)=O,mol_3346_solute_opt,mol_3346_solvent_opt,50,47,278.15,-2.386810658933736,5-hydroxy-1-methylpyrazole,ethyl acetate
3347.0,Nc1ncccn1,CCOC(C)=O,mol_3347_solute_opt,mol_3347_solvent_opt,50,43,272.65,-0.436235390171121,2-aminopyrimidine,ethyl acetate
3348.0,N#Cc1c(Cl)c(Cl)c(Cl)c(Cl)c1C#N,CCOC(C)=O,mol_3348_solute_opt,mol_3348_solvent_opt,50,50,288.15,-1.4936742113751855,Chlorothalonil,ethyl acetate
3349.0,O=P(NCc1ccccc1)(Oc1ccccc1)Oc1ccccc1,CCOC(C)=O,mol_3349_solute_opt,mol_3349_solvent_opt,50,33,293.15,-0.6831707270975819,"Phosphoramidic acid, N-(phenylmethyl)-, diphenyl ester (PANDE)",ethyl acetate
3350.0,COc1cc2oc(=O)cc(-c3ccccc3)c2cc1O,CCOC(C)=O,mol_3350_solute_opt,mol_3350_solvent_opt,50,35,283.2,-1.8386774694451464,Dalbergin,ethyl acetate
3351.0,O=c1cc(-c2ccccc2)c2cc(O)c(O)cc2o1,CCOC(C)=O,mol_3351_solute_opt,mol_3351_solvent_opt,50,36,283.2,-2.241749859263685,Nordalbergin,ethyl acetate
3352.0,C=CC(=O)NC(C)(C)C,CCOC(C)=O,mol_3352_solute_opt,mol_3352_solvent_opt,50,42,287.15,-0.8031326458846647,N-tert-butylacrylamide,ethyl acetate
3353.0,C=C1C[C@]23C[C@H]1CC[C@H]2[C@@]12CC[C@H](O)[C@@](C)(C(=O)O1)[C@H]2[C@@H]3C(=O)O,CCOC(C)=O,mol_3353_solute_opt,mol_3353_solvent_opt,50,38,278.15,-0.9555262620655672,Gibberellin A4,ethyl acetate
3354.0,CN1C(C(=O)Nc2ccccn2)=C(O)c2sccc2S1(=O)=O,CCOC(C)=O,mol_3354_solute_opt,mol_3354_solvent_opt,50,43,298.15,-2.1612926675308675,Tenoxicam,ethyl acetate
3355.0,Clc1cc(Cl)cc(Cl)c1,CCOC(C)=O,mol_3355_solute_opt,mol_3355_solvent_opt,50,49,273.15,0.0312752168736025,"1,3,5-trichlorobenzene",ethyl acetate
3356.0,COc1cc(Cc2cnc(N)nc2N)cc(OC)c1OC,CCOC(C)=O,mol_3356_solute_opt,mol_3356_solvent_opt,50,34,293.15,-2.5490769631224945,Trimethoprim,ethyl acetate
3357.0,O=S(=O)(c1ccc(O)cc1)c1ccc(O)cc1,CCOC(C)=O,mol_3357_solute_opt,mol_3357_solvent_opt,50,41,278.15,-1.247990380351404,"4,4′-dihydroxydiphenylsulfone",ethyl acetate
3358.0,CC(=O)Oc1ccccc1C(=O)O,CCOC(C)=O,mol_3358_solute_opt,mol_3358_solvent_opt,50,39,275.86,-0.7860876865950912,Aspirin,ethyl acetate
3359.0,O=C(O)c1ccccc1,CCOC(C)=O,mol_3359_solute_opt,mol_3359_solvent_opt,50,46,279.67,0.0881818239801928,Benzoic acid,ethyl acetate
3360.0,CC(C)(C)OC(=O)N[C@@H](CC(=O)O)Cc1cc(F)c(F)cc1F,CCOC(C)=O,mol_3360_solute_opt,mol_3360_solvent_opt,50,37,280.15,-0.3529902521497703,"Boc-(R)-3-amino-4-(2,4,5-trifluorophenyl)butanoic acid",ethyl acetate
3361.0,O=C1OC[C@H]2[C@@H]1N(Cc1ccccc1)C(=O)N2Cc1ccccc1,CCOC(C)=O,mol_3361_solute_opt,mol_3361_solvent_opt,50,37,293.65,-0.6367177324514307,(+)-biotin intermediate lactone,ethyl acetate
3362.0,CCOc1ncc(C)c2c1[C@H](c1ccc(C#N)cc1OC)C(C(N)=O)=C(C)N2,CCOC(C)=O,mol_3362_solute_opt,mol_3362_solvent_opt,50,36,273.15,-1.9213757931052344,Finerenone,ethyl acetate
3363.0,O=C(/C=C/c1ccc(O)c(O)c1)O[C@H](Cc1ccc(O)c(O)c1)C(=O)O,CCOC(C)=O,mol_3363_solute_opt,mol_3363_solvent_opt,50,38,293.15,-0.4375160281185191,Rosmarinic acid,ethyl acetate
3364.0,Cc1c(O)c(=O)ccn1C,CCOC(C)=O,mol_3364_solute_opt,mol_3364_solvent_opt,50,45,283.1,-3.1539598597661893,Deferiprone,ethyl acetate
3365.0,Nc1nnc(-c2cccc(Cl)c2Cl)c(N)n1,CCOC(C)=O,mol_3365_solute_opt,mol_3365_solvent_opt,50,42,283.1,-1.8734276193363584,Lamotrigine,ethyl acetate
3366.0,O=C1NC(=O)c2cc([N+](=O)[O-])ccc21,CCOC(C)=O,mol_3366_solute_opt,mol_3366_solvent_opt,50,47,273.15,-1.0113555114064332,4-nitrophthalimide,ethyl acetate
3367.0,O=C1NC23NC(=O)NC2(N1)C(=O)NC3=O,CCOC(C)=O,mol_3367_solute_opt,mol_3367_solvent_opt,50,43,273.15,-3.56546501011629,"3,7,9,11-Tetraoxo-2,4,6,8,10-pentaaza[3.3.3] Propellane (TOPAP)",ethyl acetate
3368.0,COC(=O)[C@H](N)c1ccc(O)cc1,CCOC(C)=O,mol_3368_solute_opt,mol_3368_solvent_opt,50,39,283.15,-2.79814935466175,Methyl D-(−)-4-hydroxy-phenylglycinate,ethyl acetate
3369.0,C[C@@H]1O[C@@H](O[C@H]2[C@H](Oc3cc(O)c(C(=O)CCc4ccc(O)cc4)c(O)c3)O[C@H](CO)[C@@H](O)[C@@H]2O)[C@H](O)[C@H](O)[C@H]1O,CCOC(C)=O,mol_3369_solute_opt,mol_3369_solvent_opt,50,29,298.15,-2.501961081927878,Naringin dihydrochalcone,ethyl acetate
3370.0,CC(=O)c1ccc(S(C)(=O)=O)cc1,CCOC(C)=O,mol_3370_solute_opt,mol_3370_solvent_opt,50,35,278.15,-0.5676767690286658,4-methylsulfonylacetophenone,ethyl acetate
3371.0,COC(=O)c1c(C)cc(O)c(C)c1O,CCOC(C)=O,mol_3371_solute_opt,mol_3371_solvent_opt,50,35,283.15,0.1974469229160235,Veramoss,ethyl acetate
3372.0,O=[N+]([O-])N1C2C3N([N+](=O)[O-])C1C1N([N+](=O)[O-])C(C(N1[N+](=O)[O-])N3[N+](=O)[O-])N2[N+](=O)[O-],CCOC(C)=O,mol_3372_solute_opt,mol_3372_solvent_opt,50,31,283.15,0.0576646792526504,ε-CL-20,ethyl acetate
3373.0,CCOC(=O)N1CCC(=C2c3ccc(Cl)cc3CCc3cccnc32)CC1,CCOC(C)=O,mol_3373_solute_opt,mol_3373_solvent_opt,50,32,283.15,-0.7326406192962064,Loratadine,ethyl acetate
3374.0,O=C(O)Cc1cccc2ccccc12,CCOC(C)=O,mol_3374_solute_opt,mol_3374_solvent_opt,50,39,278.15,-0.0396821773460661,1-naphthaleneacetic acid,ethyl acetate
3375.0,CCCCC1C(=O)N(c2ccccc2)N(c2ccccc2)C1=O,CCOC(C)=O,mol_3375_solute_opt,mol_3375_solvent_opt,50,28,283.15,-0.1511552411835955,Phenylbutazone,ethyl acetate
3376.0,CC(=O)Oc1ccc(C2CC(=O)c3c(OC(C)=O)cc(OC(C)=O)cc3O2)cc1,CCOC(C)=O,mol_3376_solute_opt,mol_3376_solvent_opt,50,33,278.2,-0.6295868290507374,"4′,5,7-triacetoxyflavanone",ethyl acetate
3377.0,Cn1c(=O)c2[nH]cnc2n(C)c1=O,CCOC(C)=O,mol_3377_solute_opt,mol_3377_solvent_opt,50,42,288.02,-2.286553921884209,Theophylline,ethyl acetate
3378.0,Cn1c(=O)c2c(ncn2C)n(C)c1=O,CCOC(C)=O,mol_3378_solute_opt,mol_3378_solvent_opt,50,36,288.24,-1.555067792653221,Caffeine,ethyl acetate
3379.0,Cn1cnc2c1c(=O)[nH]c(=O)n2C,CCOC(C)=O,mol_3379_solute_opt,mol_3379_solvent_opt,50,36,288.13,-3.9705028628344814,Theobromine,ethyl acetate
3380.0,O=C(c1ccccc1)C(O)c1ccccc1,CCOC(C)=O,mol_3380_solute_opt,mol_3380_solvent_opt,50,40,283.15,-1.1702088913178776,Benzoin,ethyl acetate
3381.0,N#Cc1cccnc1,CCOC(C)=O,mol_3381_solute_opt,mol_3381_solvent_opt,50,42,268.15,0.4460803096641352,3-cyanopyridine,ethyl acetate
3382.0,N#Cc1ccncc1,CCOC(C)=O,mol_3382_solute_opt,mol_3382_solvent_opt,50,48,268.15,0.0980788535196103,4-cyanopyridine,ethyl acetate
3383.0,On1nnc2ccccc21,CCOC(C)=O,mol_3383_solute_opt,mol_3383_solvent_opt,50,45,278.15,-1.2764362023752347,1-hydroxybenzotriazole,ethyl acetate
3384.0,COc1cc(C(=O)O)cc(OC)c1O,CCOC(C)=O,mol_3384_solute_opt,mol_3384_solvent_opt,50,36,283.15,-2.1392051305099167,Syringic acid,ethyl acetate
3385.0,CC(C)(C#N)N=NC(C)(C)C#N,CCOC(C)=O,mol_3385_solute_opt,mol_3385_solvent_opt,50,46,278.15,-0.4233380899493011,"2,2′-azobisisobutyronitrile (AIBN)",ethyl acetate
3386.0,CS(=O)(=O)c1ccc([C@@H](O)[C@@H](CO)NC(=O)C(Cl)Cl)cc1,CCOC(C)=O,mol_3386_solute_opt,mol_3386_solvent_opt,50,40,278.15,-3.18685386158392,Thiamphenicol,ethyl acetate
3387.0,CC1(C)COP(=O)(C(Nc2ccccc2)c2ccccc2)OC1,CCOC(C)=O,mol_3387_solute_opt,mol_3387_solvent_opt,50,35,293.65,-1.6243188413350238,"5,5-dimethyl-2-(phenyl(phenylamino)methyl)-1,3,2-dioxaphosphinane 2-oxide",ethyl acetate
3388.0,N#Cc1cccc([N+](=O)[O-])c1,CCOC(C)=O,mol_3388_solute_opt,mol_3388_solvent_opt,50,46,278.15,-0.4187990298319803,3-nitrobenzonitrile,ethyl acetate
3389.0,OC/C=C/c1ccccc1,CCOC(C)=O,mol_3389_solute_opt,mol_3389_solvent_opt,50,47,253.15,0.4519948925463026,Trans-cinnamyl alcohol,ethyl acetate