pair_id,SMILES_Solute,SMILES_Solvent,Solute_name,Solvent_name,Total_conformers,Filtered_conformers,Temperature_K,LogS,Compound_Name,Solvent
807.0,O=C1OC(=O)c2ccc(Br)c3cccc1c23,CCO,mol_807_solute_opt,mol_807_solvent_opt,50,36,278.15,-3.333998463421929,"4-bromo-1,8-naphthalic anhydride",ethanol
808.0,CC1(C)COP(=O)(C(C)(C)O)OC1,CCO,mol_808_solute_opt,mol_808_solvent_opt,50,25,278.85,-0.4523085688706451,"1,3,2-dioxaphosphorinane-2-methanol-α,α-5,5-tetramethyl 2-oxide",ethanol
809.0,c1ccc(CSSCc2ccccc2)cc1,CCO,mol_809_solute_opt,mol_809_solvent_opt,50,31,284.7,-2.537912166109982,Benzyl disulfide,ethanol
810.0,O=P(Oc1ccccc1)(Oc1ccccc1)N1CCN(P(=O)(Oc2ccccc2)Oc2ccccc2)CC1,CCO,mol_810_solute_opt,mol_810_solvent_opt,50,20,293.15,-2.070779011574784,"P,P′-(1,4-piperazinediyl)bis-,P,P,P′,P′-tetraphenyl ester (PAPBE)",ethanol
811.0,O=[N+]([O-])c1ccc(Cl)c(Cl)c1,CCO,mol_811_solute_opt,mol_811_solvent_opt,50,43,278.15,-0.448423483906248,"3,4-dichloronitrobenzene",ethanol
812.0,CCNc1nc(Cl)nc(NC(C)C)n1,CCO,mol_812_solute_opt,mol_812_solvent_opt,50,31,283.15,-1.4831447364581427,Atrazine,ethanol
813.0,Cc1cccc(Nc2ccccc2C(=O)O)c1C,CCO,mol_813_solute_opt,mol_813_solvent_opt,50,33,298.0,-1.4888005122092731,Mefenamic acid,ethanol
814.0,O=C(O)c1cc2ccccc2[nH]1,CCO,mol_814_solute_opt,mol_814_solvent_opt,50,34,278.15,0.0219864857780009,Indole-2-carboxylic acid,ethanol
815.0,CS(=O)(=O)c1ccc(F)cc1,CCO,mol_815_solute_opt,mol_815_solvent_opt,50,34,291.07,-0.5484356800980013,1-fluoro-4-(methylsulfonyl)benzene,ethanol
816.0,O=P12OCC(CO)(CO1)CO2,CCO,mol_816_solute_opt,mol_816_solvent_opt,50,38,292.85,-1.0137144110290557,"4-(hydroxymethyl)-1-oxido-2,6,7-trioxa-1-phosphabicyclo[2.2.2]octane",ethanol
817.0,Nc1cc(Cl)nnc1Cl,CCO,mol_817_solute_opt,mol_817_solvent_opt,50,40,303.15,-0.530274911750727,"4-amino-3,6-dichloropyridazine",ethanol
818.0,O=C(O)c1ccco1,CCO,mol_818_solute_opt,mol_818_solvent_opt,50,38,279.35,0.4946618311027907,2-furancarboxylic acid,ethanol
819.0,O=C(O)COC(=O)Cc1ccccc1Nc1c(Cl)cccc1Cl,CCO,mol_819_solute_opt,mol_819_solvent_opt,50,41,293.85,-0.8317096700791968,Aceclofenac,ethanol
820.0,OC[C@H]1O[C@H](O[C@H]2O[C@H](CO)[C@@H](O)[C@H](O)[C@H]2O)[C@H](O)[C@@H](O)[C@@H]1O,CCO,mol_820_solute_opt,mol_820_solvent_opt,50,29,288.15,-1.9491073453732,Trehalose,ethanol
821.0,C[N+](C)(C)C[C@H](O)CC(=O)[O-],CCO,mol_821_solute_opt,mol_821_solvent_opt,50,41,278.15,-0.1486538771170923,L-carnitine,ethanol
822.0,COc1ccc([C@@H]2CC(=O)c3c(O)cc(O[C@@H]4O[C@H](CO[C@@H]5O[C@@H](C)[C@H](O)[C@@H](O)[C@H]5O)[C@@H](O)[C@H](O)[C@H]4O)cc3O2)cc1O,CCO,mol_822_solute_opt,mol_822_solvent_opt,50,21,298.15,-3.230467221413757,Hesperidin,ethanol
823.0,CCN1CCN(c2cc3c(cc2F)c(=O)c(C(=O)O)cn3C2CC2)CC1,CCO,mol_823_solute_opt,mol_823_solvent_opt,50,44,303.15,-1.9702344847845283,Enrofloxacin,ethanol
824.0,CCCCCCCCCCCC(=O)O,CCO,mol_824_solute_opt,mol_824_solvent_opt,50,25,276.17,-0.1139188553684496,Lauric acid,ethanol
825.0,COC(=O)[C@H](Cc1ccccc1)NC(=O)[C@@H](N)CC(=O)O,CCO,mol_825_solute_opt,mol_825_solvent_opt,50,25,278.15,-3.259190845898991,Aspartame,ethanol
826.0,Oc1cccc(/C=N\NC(=S)NC2CCCCC2)c1,CCO,mol_826_solute_opt,mol_826_solvent_opt,50,25,298.15,-0.6336981164816334,(2Z)-N-cyclohexyl-2-(3-hydroxybenzylidine) hydrazine carbothioamide,ethanol
827.0,O=C(NNC(=S)Nc1ccc(Cl)cc1)c1ccncc1,CCO,mol_827_solute_opt,mol_827_solvent_opt,50,33,298.15,-1.9571159397676143,N-(4-chlorophenyl)-2-(pyridin-4-ylcarbonyl)hydrazinecarbothioamide,ethanol
828.0,O=[N+]([O-])c1cccc(Cl)c1Cl,CCO,mol_828_solute_opt,mol_828_solvent_opt,50,41,278.15,-0.6392654528026621,"2,3-dichloronitrobenzene",ethanol
829.0,O=C(O)c1ccc(O)c(O)c1,CCO,mol_829_solute_opt,mol_829_solvent_opt,50,39,293.15,-0.272111627274155,Protocatechuic acid,ethanol
830.0,Nc1cc(Cl)cc(Cl)c1,CCO,mol_830_solute_opt,mol_830_solvent_opt,50,43,278.15,0.3492880629435501,"3,5-dichloroaniline",ethanol
831.0,O=C(O)CCCC[C@@H]1SC[C@@H]2NC(=O)N[C@@H]21,CCO,mol_831_solute_opt,mol_831_solvent_opt,50,27,298.15,-2.965499996037917,Biotin,ethanol
832.0,CC1(C)COP(=O)(C(C)(O)c2ccccc2)OC1,CCO,mol_832_solute_opt,mol_832_solvent_opt,50,28,278.45,-1.0099691734483356,"1,3,2-dioxaphosphorinane-2-methanol-α,5,5-trimethyl-α-phenyl-2-oxide",ethanol
833.0,Nc1ccc(S(=O)(=O)O)cc1,CCO,mol_833_solute_opt,mol_833_solvent_opt,50,41,278.15,-2.4304195344233266,Sulfanilic acid,ethanol
834.0,COC(=O)[C@H]1[C@H]2C[C@@H]3c4[nH]c5cc(OC)ccc5c4CCN3C[C@H]2C[C@@H](OC(=O)c2cc(OC)c(OC)c(OC)c2)[C@@H]1OC,CCO,mol_834_solute_opt,mol_834_solvent_opt,50,17,298.15,-3.806401848081598,Reserpine,ethanol
835.0,CC1(C)COC(=O)[C@@H]1O,CCO,mol_835_solute_opt,mol_835_solvent_opt,50,38,288.15,1.0675244792752687,D-pantolactone,ethanol
836.0,C1=Cc2nc1c(-c1ccccc1)c1ccc([nH]1)c(-c1ccccc1)c1nc(c(-c3ccccc3)c3ccc([nH]3)c2-c2ccccc2)C=C1,CCO,mol_836_solute_opt,mol_836_solvent_opt,50,8,303.2,-4.526127810868863,"5,10,15,20-tetraphenylporphyrin (TPP)",ethanol
837.0,CC(C)c1ccc2sc3ccccc3c(=O)c2c1,CCO,mol_837_solute_opt,mol_837_solvent_opt,50,28,305.65,-0.1263070716305175,2-Isopropylthioxanthone (ITX),ethanol
838.0,O=C1Nc2ccccc2C1=O,CCO,mol_838_solute_opt,mol_838_solvent_opt,50,40,298.15,-1.1547980850710438,Isatin,ethanol
839.0,COc1ccc(C(=O)O)c(OC)c1,CCO,mol_839_solute_opt,mol_839_solvent_opt,50,34,288.15,-0.6944460785281149,"2,4-dimethoxybenzoic acid",ethanol
840.0,Cc1ccc2ccccc2c1,CCO,mol_840_solute_opt,mol_840_solvent_opt,50,37,278.25,-0.1514095543077831,2-methylnaphthalene,ethanol
841.0,Nc1ccc(Cc2ccc(N)cc2)cc1,CCO,mol_841_solute_opt,mol_841_solvent_opt,50,35,293.15,-0.2261861987651156,"4,4′-diaminodiphenylmethane",ethanol
842.0,C=C1CCC[C@]2(C)C[C@]3(O)OC(=O)C(C)=C3C[C@@H]12,CCO,mol_842_solute_opt,mol_842_solvent_opt,50,26,283.2,-1.1133481253230286,Atractylenolide III,ethanol
843.0,CC(C)(O)P1(=O)OCC2(CO1)COP(=O)(C(C)(C)O)OC2,CCO,mol_843_solute_opt,mol_843_solvent_opt,50,25,294.15,-1.5825908122685548,"2,4,8,10-tetraoxa-3,9-diphosphaspiro[5.5]undecane-3,9-dimethanol, α,α,α‘,α‘-tetramethyl-3,9-dioxide",ethanol
844.0,C=C(C)[C@@H]1CC[C@]2(CO)CC[C@]3(C)[C@H](CC[C@@H]4[C@@]5(C)CC[C@H](O)C(C)(C)[C@@H]5CC[C@]43C)[C@@H]12,CCO,mol_844_solute_opt,mol_844_solvent_opt,50,20,278.2,-1.9959852010971544,Betulin,ethanol
845.0,O=C(O)Cn1cnnn1,CCO,mol_845_solute_opt,mol_845_solvent_opt,50,41,283.27,-0.0245088032201111,1H-Tetrazole-1-acetic Acid,ethanol
846.0,CCC[C@@H]1C[C@@H](C(=O)N[C@@H]([C@H]2O[C@H](SC)[C@H](OP(=O)(O)O)[C@@H](O)[C@H]2O)[C@H](C)Cl)N(C)C1,CCO,mol_846_solute_opt,mol_846_solvent_opt,50,27,278.15,-3.9807377962815096,Clindamycin phosphate,ethanol
847.0,Nc1cccc(N)n1,CCO,mol_847_solute_opt,mol_847_solvent_opt,50,38,266.95,0.1562296054458092,"2,6-diaminopyridine",ethanol
848.0,CCCCC1=NC2(CCCC2)C(=O)N1Cc1ccc(-c2ccccc2-c2nn[nH]n2)cc1,CCO,mol_848_solute_opt,mol_848_solvent_opt,50,24,278.6,-2.236776599338393,Irbesartan,ethanol
849.0,C1=Cc2cccc3cccc1c23,CCO,mol_849_solute_opt,mol_849_solvent_opt,50,35,278.1,-1.092026108538786,Acenaphthylene,ethanol
850.0,O=P1(c2cc(O)ccc2O)Oc2ccccc2-c2ccccc21,CCO,mol_850_solute_opt,mol_850_solvent_opt,50,32,293.15,-1.4533840688833652,"2-(6-oxido-6H-dibenz[c,e][1,2]oxaphosphorin-6-yl)-1,4-dihydroxy phenylene",ethanol
851.0,CCc1ccc(C(=O)c2ccccc2C(=O)O)cc1,CCO,mol_851_solute_opt,mol_851_solvent_opt,50,27,282.29,0.1373112537545029,2-(4-ethylbenzoyl)benzoic acid,ethanol
852.0,CC(C)(C)C(=O)OCOP(=O)(COCCn1cnc2c(N)ncnc21)OCOC(=O)C(C)(C)C,CCO,mol_852_solute_opt,mol_852_solvent_opt,50,24,298.15,-0.2210747944422744,Adefovir dipivoxil,ethanol
853.0,CO[C@H]1/C=C/O[C@@]2(C)Oc3c(C)c(O)c4c(O)c(c(/C=N/N5CCN(C6CCCC6)CC5)c(O)c4c3C2=O)NC(=O)/C(C)=C\C=C\[C@H](C)[C@H](O)[C@@H](C)[C@@H](O)[C@@H](C)[C@H](OC(C)=O)[C@@H]1C,CCO,mol_853_solute_opt,mol_853_solvent_opt,50,13,278.15,-2.0468607041278326,Rifapentine,ethanol
854.0,O=P(O)(c1ccccc1)c1ccccc1,CCO,mol_854_solute_opt,mol_854_solvent_opt,50,37,283.15,-0.9994513949759573,Diphenylphosphinic acid,ethanol
855.0,CC(=O)C1=CC[C@H]2[C@@H]3CCC4=CC(=O)C=C[C@]4(C)[C@H]3[C@@H](O)C[C@]12C,CCO,mol_855_solute_opt,mol_855_solvent_opt,50,30,298.15,-1.4387913811462398,"11β-hydroxypregna-1,4,16-triene-3,20-dione",ethanol
856.0,CN(C)CCn1[nH]nnc1=S,CCO,mol_856_solute_opt,mol_856_solvent_opt,50,36,293.25,-3.038688840314129,1-(2-dimethylaminoethyl)-5-mercapto-1H-tetrazole,ethanol
857.0,O=C1C=CC(=O)c2ccccc21,CCO,mol_857_solute_opt,mol_857_solvent_opt,50,38,279.8,-1.597674323122268,"1,4-naphthoquinone",ethanol
858.0,Oc1cc(Cl)ccc1Oc1ccc(Cl)cc1Cl,CCO,mol_858_solute_opt,mol_858_solvent_opt,50,32,293.15,0.9303324737911016,Triclosan,ethanol
859.0,c1ccc2oc(CSCc3nc4ccccc4o3)nc2c1,CCO,mol_859_solute_opt,mol_859_solvent_opt,50,32,274.15,-0.8839561605066192,Bis(benzoxazolyl-2-methyl) sulfide,ethanol
860.0,O=C(Oc1ccccc1)Oc1ccccc1,CCO,mol_860_solute_opt,mol_860_solvent_opt,50,32,283.0,-0.8931903675329108,Diphenyl carbonate,ethanol
861.0,CCCCCCCCCCCCCCCC(=O)O,CCO,mol_861_solute_opt,mol_861_solvent_opt,50,21,292.15,-0.6527572949949564,Palmitic acid,ethanol
862.0,c1ccc2ccccc2c1,CCO,mol_862_solute_opt,mol_862_solvent_opt,50,46,304.26,-0.0842641456582559,Naphthalene,ethanol
863.0,C1N2CN3CN1CN(C2)C3,CCO,mol_863_solute_opt,mol_863_solvent_opt,50,41,288.19,-0.8305387075820491,Hexamethylenetetramine,ethanol
864.0,O=C(Oc1ccccc1)c1ccccc1O,CCO,mol_864_solute_opt,mol_864_solvent_opt,50,32,283.15,-0.3966055509582646,Salol,ethanol
865.0,Clc1ccc2c(Cl)ccnc2c1,CCO,mol_865_solute_opt,mol_865_solvent_opt,50,41,299.8,-0.7114313025035132,"4,7-dichloroquinoline",ethanol
866.0,CN1CCN(c2cc3c(cc2F)c(=O)c(C(=O)O)cn3-c2ccc(F)cc2)CC1,CCO,mol_866_solute_opt,mol_866_solvent_opt,50,25,293.15,-0.161177124730553,Difloxacin,ethanol
867.0,CC1=C(/C=C/C(C)=C/C=C/C(C)=C/C=C/C=C(C)/C=C/C=C(C)/C=C/C2=C(C)C(=O)CCC2(C)C)C(C)(C)CCC1=O,CCO,mol_867_solute_opt,mol_867_solvent_opt,50,19,293.15,-4.112814679332479,Canthaxanthin,ethanol
868.0,C[C@@H]1O[C@@H](OC[C@H]2O[C@@H](Oc3c(-c4ccc(O)c(O)c4)oc4cc(O)cc(O)c4c3=O)[C@H](O)[C@@H](O)[C@@H]2O)[C@H](O)[C@H](O)[C@H]1O,CCO,mol_868_solute_opt,mol_868_solvent_opt,50,22,273.2,-1.213865175331999,Rutin,ethanol
869.0,O=C(O)c1ccncc1,CCO,mol_869_solute_opt,mol_869_solvent_opt,50,34,301.05,-1.9808555782566035,Isonicotinic acid,ethanol
870.0,CO[C@H]1O[C@@H]2O[C@@]3(C)CC[C@H]4[C@H](C)CC[C@@H]([C@H]1C)[C@@]24OO3,CCO,mol_870_solute_opt,mol_870_solvent_opt,50,23,289.05,-0.1495188473682145,β-Artemether,ethanol
871.0,NC[C@H]1O[C@H](O[C@H]2[C@H](O)[C@@H](O[C@H]3O[C@H](CO)[C@@H](O)[C@H](N)[C@H]3O)[C@H](N)C[C@@H]2N)[C@H](N)C[C@@H]1O,CCO,mol_871_solute_opt,mol_871_solvent_opt,50,23,283.15,-2.1221471073091736,Tobramycin,ethanol
872.0,CCc1occc(=O)c1O,CCO,mol_872_solute_opt,mol_872_solvent_opt,50,37,293.15,0.0382236222689501,Ethyl maltol,ethanol
873.0,O=C(O)/C=C/C(=O)O,CCO,mol_873_solute_opt,mol_873_solvent_opt,50,42,279.0,-0.6548148133044268,Fumaric acid,ethanol
874.0,Cn1[nH]c(=O)c(=O)[nH]c1=S,CCO,mol_874_solute_opt,mol_874_solvent_opt,50,40,293.23,-0.6630049581414665,Thiotriazinone,ethanol
875.0,CC(=O)Oc1ccc(C(=O)O)cc1,CCO,mol_875_solute_opt,mol_875_solvent_opt,50,35,298.15,-0.3613300135574859,4-Acetoxybenzoic Acid,ethanol
876.0,COc1cc(OC)cc(C(=O)O)c1,CCO,mol_876_solute_opt,mol_876_solvent_opt,50,37,298.15,-1.0730425081541934,"3,5-Dimethoxybenzoic Acid",ethanol
877.0,N#Cc1ccc(C(=O)O)cc1,CCO,mol_877_solute_opt,mol_877_solvent_opt,50,36,298.15,-0.429323014274641,4-cyanobenzoic acid,ethanol
878.0,Nc1cc(N)cc(C(=O)O)c1,CCO,mol_878_solute_opt,mol_878_solvent_opt,50,38,298.15,-1.2436240295507095,"3,5-Diaminobenzoic Acid",ethanol
879.0,CCCCCCCCCCCCCCCc1cccc(O)c1,CCO,mol_879_solute_opt,mol_879_solvent_opt,50,21,291.47,0.5081092498262788,3-pentadecylphenol,ethanol
880.0,Nc1nc(N)c([N+](=O)[O-])cc1[N+](=O)[O-],CCO,mol_880_solute_opt,mol_880_solvent_opt,50,38,305.15,-2.2975035199537004,"2,6-diamino-3,5-dinitropyridine and 2,5-dihydroxyterephthalic acid",ethanol
881.0,CP1(=O)OCC2(CO1)COP(C)(=O)OC2,CCO,mol_881_solute_opt,mol_881_solvent_opt,50,39,288.15,-1.8944181144088832,"3,9-dimethyl-3,9-dioxide-2,4,8,10-tetraoxa-3,9-diphosphaspiro[5.5]undecane",ethanol
883.0,Nc1ncnc2c1ncn2[C@@H]1O[C@H](COP(=O)(O)O)[C@@H](O)[C@H]1O,CCO,mol_883_solute_opt,mol_883_solvent_opt,50,30,288.15,-4.03993905762543,Adenosine 5′-monophosphate,ethanol
884.0,COc1cnc(Cl)nc1Cl,CCO,mol_884_solute_opt,mol_884_solvent_opt,50,37,299.44,-0.0719202928251138,"2,4-dichloro-5-methoxypyrimidine",ethanol
885.0,C=CC(=O)Nc1cc(F)c(Br)c(F)c1,CCO,mol_885_solute_opt,mol_885_solvent_opt,50,33,295.25,-0.356516971263974,"N-[(4-bromo-3,5-difluorine)phenyl]acrylamide",ethanol
886.0,O=P(c1ccccc1)(c1ccccc1)c1cc(O)ccc1O,CCO,mol_886_solute_opt,mol_886_solvent_opt,50,24,293.95,-1.0073041937821112,"(2,5-dihydroxyphenyl)diphenyl phosphine oxide",ethanol
887.0,CO/N=C(\C(=O)Sc1nc2ccccc2s1)c1csc(N)n1,CCO,mol_887_solute_opt,mol_887_solvent_opt,50,32,277.67,-2.450652796220409,"(α,Z)-2-Amino-α-(methoxyimino)-4-thiazole-ethanethioic Acid S-2-Benzothiazolyl Ester",ethanol
888.0,OC[C@H]1O[C@H](O[C@]2(CCl)O[C@H](CCl)[C@@H](O)[C@@H]2O)[C@H](O)[C@@H](O)[C@H]1Cl,CCO,mol_888_solute_opt,mol_888_solvent_opt,50,23,283.15,-0.8320674914123919,Sucralose,ethanol
889.0,Oc1cc(O)c2cc(O)c(-c3cc(O)c(O)c(O)c3)[o+]c2c1,CCO,mol_889_solute_opt,mol_889_solvent_opt,50,34,298.15,-6.010146653052658,Delphinidin,ethanol
890.0,CC[C@H](CC[C@@H](C)[C@H]1CC[C@H]2[C@@H]3CC=C4C[C@@H](O)CC[C@]4(C)[C@H]3CC[C@]12C)C(C)C,CCO,mol_890_solute_opt,mol_890_solvent_opt,50,20,278.15,-1.6437148483635486,β-Sitosterol,ethanol
891.0,O=c1c(O)c(-c2ccc(O)c(O)c2)oc2cc(O)cc(O)c12,CCO,mol_891_solute_opt,mol_891_solvent_opt,50,33,292.8,-1.6349538587906634,Quercetin,ethanol
892.0,CC(=O)NCC(=O)O,CO,mol_892_solute_opt,mol_892_solvent_opt,50,30,278.15,-1.019636170986017,N-acetylglycine,methanol
893.0,COc1ccc2nc(SCc3ncc(C)c(OC)c3C)[nH]c2c1,CO,mol_893_solute_opt,mol_893_solvent_opt,50,17,280.35,-0.4915789356450073,Omeprazole sulfide,methanol
894.0,CC1(C)COP(=O)(Oc2cc(OP3(=O)OCC(C)(C)CO3)cc(OP3(=O)OCC(C)(C)CO3)c2)OC1,CO,mol_894_solute_opt,mol_894_solvent_opt,50,9,288.15,-1.9788626517196624,"Phloroglucinol tris(cyclic 2,2-dimethyl-1,3-propanediol phosphate)",methanol
895.0,CCCc1nc2c(C)cc(-c3nc4ccccc4n3C)cc2n1Cc1ccc(-c2ccccc2C(=O)O)cc1,CO,mol_895_solute_opt,mol_895_solvent_opt,50,14,278.45,-2.819619054442515,Telmisartan,methanol
896.0,CO[C@@]1(NC(=O)CSCC#N)C(=O)N2C(C(=O)O)=C(CSc3nnnn3C)CS[C@@H]21,CO,mol_896_solute_opt,mol_896_solvent_opt,50,24,278.15,-1.4110548707667423,Cefmetazole acid,methanol
897.0,CC(=O)c1cnccn1,CO,mol_897_solute_opt,mol_897_solvent_opt,50,32,268.35,-0.4752110420478549,Acetylpyrazine,methanol
898.0,Cc1cccc(C(=O)O)c1[N+](=O)[O-],CO,mol_898_solute_opt,mol_898_solvent_opt,50,28,283.15,-0.6116047407471787,3-methyl-2-nitrobenzoic acid,methanol
899.0,Cc1cnc(NC(=O)C2=C(O)c3ccccc3S(=O)(=O)N2C)s1,CO,mol_899_solute_opt,mol_899_solvent_opt,50,19,293.15,-3.00297013758308,Meloxicam,methanol
900.0,O=[N+]([O-])c1ccn([N+](=O)[O-])n1,CO,mol_900_solute_opt,mol_900_solvent_opt,50,33,278.15,-0.111404155606334,"1,3-dinitropyrazole",methanol
901.0,Cc1ccc(C)c(O)c1,CO,mol_901_solute_opt,mol_901_solvent_opt,50,29,281.05,0.9733364449988466,"2,5-dimethylphenol",methanol
902.0,Cc1ccc(O)cc1C,CO,mol_902_solute_opt,mol_902_solvent_opt,50,35,283.65,1.2375107192326669,"3,4-dimethylphenol",methanol
903.0,CCCCCCCCC(=O)NCc1ccc(O)c(OC)c1,CO,mol_903_solute_opt,mol_903_solvent_opt,50,15,293.2,0.8399812074975892,Nonivamide,methanol
904.0,Nc1cccc(N)c1,CO,mol_904_solute_opt,mol_904_solvent_opt,50,35,278.15,0.5215743389621926,m-phenylenediamine,methanol
905.0,O=[N+]([O-])c1c[nH]cn1,CO,mol_905_solute_opt,mol_905_solvent_opt,50,36,278.15,-0.9284596570942216,4-nitroimidazole,methanol
906.0,COc1cc(NS(=O)(=O)c2ccc(N)cc2)ncn1,CO,mol_906_solute_opt,mol_906_solvent_opt,50,33,294.55,-1.7416531032951732,Sulfamonomethoxine,methanol
908.0,O=[N+]([O-])c1cc([N+](=O)[O-])c(Cl)c(Cl)c1Cl,CO,mol_908_solute_opt,mol_908_solvent_opt,50,35,278.15,-1.1798705017939888,"2,3,4-trichloro-1,5-dinitrobenzene",methanol
909.0,O=C1c2ccccc2-c2ccccc21,CO,mol_909_solute_opt,mol_909_solvent_opt,50,32,278.15,-1.0299978496801172,9-fluorenone,methanol
910.0,C=C(CC(=O)O)C(=O)O,CO,mol_910_solute_opt,mol_910_solvent_opt,50,34,283.15,0.4524206732878881,Itaconic acid,methanol
911.0,c1cc2ccc3cccc4ccc(c1)c2c34,CO,mol_911_solute_opt,mol_911_solvent_opt,50,18,293.95,-1.5035920673702214,Pyrene,methanol
912.0,CC1(C)COP(=O)(O)OC1c1ccccc1Cl,CO,mol_912_solute_opt,mol_912_solvent_opt,50,18,278.15,-0.9495125091458568,Chlocyphos,methanol
913.0,O=C(O)CCCCCCC(=O)O,CO,mol_913_solute_opt,mol_913_solvent_opt,50,21,283.25,-0.3419695081767985,Suberic acid,methanol
914.0,O=c1c(-c2ccc(O)cc2)coc2c([C@@H]3O[C@H](CO)[C@@H](O)[C@H](O)[C@H]3O)c(O)ccc12,CO,mol_914_solute_opt,mol_914_solvent_opt,50,19,293.15,-0.750727444738978,Puerarin,methanol
915.0,O=C(O)CC(S)C(=O)O,CO,mol_915_solute_opt,mol_915_solvent_opt,50,31,278.15,0.52325584376339,Thiomalic acid,methanol
916.0,COC(=O)C1CC(=O)C(C(=O)OC)CC1=O,CO,mol_916_solute_opt,mol_916_solvent_opt,50,26,278.15,-2.599766011809257,Dimethyl succinylsuccinate,methanol
917.0,C/C=C/C(=O)O,CO,mol_917_solute_opt,mol_917_solvent_opt,50,30,278.15,0.6906069723218915,Crotonic acid,methanol
918.0,Nc1ccc(Oc2ccc(N)cc2)cc1,CO,mol_918_solute_opt,mol_918_solvent_opt,50,20,283.15,-1.5450285848642973,"4,4′-oxydianiline",methanol
919.0,CC1(C)CO[P+]([O-])(Oc2c(Br)cc(Br)cc2Br)OC1,CO,mol_919_solute_opt,mol_919_solvent_opt,50,21,293.15,-1.3166553297932018,"1,3,2-dioxaphosphorinane-5,5-dimethyl-2-(2,4,6-tribromophenoxy)-2-oxide",methanol
920.0,O=C1C=CC(=O)O1,CO,mol_920_solute_opt,mol_920_solvent_opt,50,41,278.15,-0.2656349650118742,Maleic anhydride,methanol
921.0,Cc1nc2n(c(=O)c1CCN1CCC(c3noc4cc(F)ccc34)CC1)CCCC2,CO,mol_921_solute_opt,mol_921_solvent_opt,50,17,278.15,-1.293579911886373,Risperidone,methanol
922.0,CCn1c2ccccc2c2ccccc21,CO,mol_922_solute_opt,mol_922_solvent_opt,50,18,279.15,-1.151944264982571,N-ethylcarbazole,methanol
923.0,O=C(O)CN(CC(=O)O)CP(=O)(O)O,CO,mol_923_solute_opt,mol_923_solvent_opt,50,21,298.15,-3.175534053928492,N-(phosphonomethyl)iminodiacetic acid,methanol
924.0,Cc1nnc(SCC2=C(C(=O)O)N3C(=O)[C@@H](NC(=O)Cn4cnnn4)[C@H]3SC2)s1,CO,mol_924_solute_opt,mol_924_solvent_opt,50,23,278.15,-2.702747719062286,Cefazolin acid,methanol
925.0,O=c1ccc2ccccc2o1,CO,mol_925_solute_opt,mol_925_solvent_opt,50,36,278.15,-0.5150189848984044,Coumarin,methanol
926.0,CN=C(NC#N)NCCSCc1nc[nH]c1C,CO,mol_926_solute_opt,mol_926_solvent_opt,50,32,281.04,-0.683896922507075,Cimetidine,methanol
927.0,CO[C@H]1O[C@H](CO)[C@@H](O)[C@H](O)[C@H]1O,CO,mol_927_solute_opt,mol_927_solvent_opt,50,24,293.15,-0.6299817528743407,Methyl α-d-glucopyranoside,methanol
928.0,CCOc1ccccc1C(N)=O,CO,mol_928_solute_opt,mol_928_solvent_opt,50,27,288.15,-0.4095706076650431,Ethenzamide,methanol
929.0,CC(=O)NC[C@H]1CN(c2ccc(N3CCOCC3)c(F)c2)C(=O)O1,CO,mol_929_solute_opt,mol_929_solvent_opt,50,24,283.15,-1.4895962700819676,Linezolid,methanol
930.0,Nc1ccn([C@@H]2O[C@H](CO)[C@@H](O)[C@@H]2O)c(=O)n1,CO,mol_930_solute_opt,mol_930_solvent_opt,50,27,293.15,-1.7263938605979317,Cytarabine,methanol
931.0,Cc1cc(C)c(C(=O)P(=O)(c2ccccc2)c2ccccc2)c(C)c1,CO,mol_931_solute_opt,mol_931_solvent_opt,50,15,273.15,0.4934047606285722,"(2,4,6-trimethylbenzoyl) diphenylphosphine oxide",methanol
932.0,CC1(C)CCC2=C(O1)c1ccccc1C(=O)C2=O,CO,mol_932_solute_opt,mol_932_solvent_opt,50,19,298.15,-0.8753694660064932,β-lapachone,methanol
933.0,Cn1cc([N+](=O)[O-])cn1,CO,mol_933_solute_opt,mol_933_solvent_opt,50,40,283.15,-0.8018724077324366,1-methyl-4-nitropyrazole,methanol
934.0,Nc1nc(N)nc(NC2CC2)n1,CO,mol_934_solute_opt,mol_934_solvent_opt,50,22,283.15,-1.303367145612614,Cyromazine,methanol
935.0,NC(=O)c1cnccn1,CO,mol_935_solute_opt,mol_935_solvent_opt,50,37,283.15,-1.1736162778830008,Pyrazinamide,methanol
936.0,O=C1NC(=O)C2C3C=CC(C3)C12,CO,mol_936_solute_opt,mol_936_solvent_opt,50,31,278.15,-0.8006475300621939,"5-norbornene-2,3-dicarboximide",methanol
937.0,O=C(O)c1ccc(-c2ccc(C(=O)O)o2)o1,CO,mol_937_solute_opt,mol_937_solvent_opt,50,27,298.15,-2.090143001887907,"2,2′-bifuran-5,5′-dicarboxylic acid",methanol
938.0,Oc1ccc(/C=C/c2cc(O)cc(O)c2)cc1,CO,mol_938_solute_opt,mol_938_solvent_opt,50,30,278.2,-0.5616953105331274,Trans-resveratrol,methanol