pair_id,SMILES_Solute,SMILES_Solvent,Solute_name,Solvent_name,Total_conformers,Filtered_conformers,Temperature_K,LogS,Compound_Name,Solvent
1198.0,COc1cccc(C(=O)O)c1OC,CO,mol_1198_solute_opt,mol_1198_solvent_opt,50,30,278.15,-0.4153942467700339,"2,3-dimethoxybenzoic acid",methanol
1199.0,CC(=CC(C)=Nc1c(C)cccc1C)Nc1c(C)cccc1C,CO,mol_1199_solute_opt,mol_1199_solvent_opt,50,12,273.15,-1.4205223037210364,"N-{3-[(2,6-Dimethylphenyl)amino]-1-methyl-2-buten-1-ylidene}-2,6-dimethylbenzenamine",methanol
1200.0,C=C1CCN([C@H](C)[C@](O)(Cn2cncn2)c2ccc(F)cc2F)CC1,CO,mol_1200_solute_opt,mol_1200_solvent_opt,50,19,288.15,0.7246097400416047,Efinaconazole,methanol
1201.0,O=[N+]([O-])c1cc([N+](=O)[O-])c(-c2nnc(-c3nnc(-c4c([N+](=O)[O-])cc([N+](=O)[O-])cc4[N+](=O)[O-])o3)o2)c([N+](=O)[O-])c1,CO,mol_1201_solute_opt,mol_1201_solvent_opt,50,18,293.15,-2.984063344665313,"5,5′-bis(2,4,6-trinitrophenyl)-2,2′-bis(1,3,4-oxadiazole)",methanol
1202.0,NCC(CC(=O)O)c1ccc(Cl)cc1,CO,mol_1202_solute_opt,mol_1202_solvent_opt,50,24,293.2,-2.517599383318515,Baclofen,methanol
1203.0,O=C(O)CCC(=O)c1ccc(-c2ccccc2)cc1,CO,mol_1203_solute_opt,mol_1203_solvent_opt,50,16,278.15,-1.943994297159109,Fenbufen,methanol
1204.0,COc1c2occc2c(OC)c2c(=O)cc(C)oc12,CO,mol_1204_solute_opt,mol_1204_solvent_opt,50,22,298.15,-1.1759669443747875,Khellin,methanol
1205.0,O=c1[nH]cc(F)c(=O)[nH]1,CO,mol_1205_solute_opt,mol_1205_solvent_opt,50,37,283.15,-1.105523003235184,5-fluorouracil,methanol
1206.0,CC(=O)c1cccc(O)c1,CO,mol_1206_solute_opt,mol_1206_solvent_opt,50,31,289.15,0.661298536738978,m-hydroxyacetophenone (m-HAP),methanol
1207.0,Cc1c(-c2ccccc2)oc2c(C(=O)O)cccc2c1=O,CO,mol_1207_solute_opt,mol_1207_solvent_opt,50,20,278.15,-2.063101577853529,3-methylflavone-8-carboxylic acid,methanol
1208.0,NC(=O)c1cccnc1Cl,CO,mol_1208_solute_opt,mol_1208_solvent_opt,50,38,278.15,-0.7231153476058745,2-chloronicotinamide,methanol
1209.0,CC(=O)c1c(C)c2cnc(Nc3ccc(N4CCNCC4)cn3)nc2n(C2CCCC2)c1=O,CO,mol_1209_solute_opt,mol_1209_solvent_opt,50,19,293.15,-3.566140179748999,Palbociclib,methanol
1210.0,O=C(NC[C@H]1CN(c2ccc(N3CCOCC3=O)cc2)C(=O)O1)c1ccc(Cl)s1,CO,mol_1210_solute_opt,mol_1210_solvent_opt,50,15,283.15,-3.220401305131347,Rivaroxaban,methanol
1211.0,O=C(c1ccccc1)c1ccc(Cl)cc1,CO,mol_1211_solute_opt,mol_1211_solvent_opt,50,31,278.15,-0.8582441493740636,4-chlorobenzophenone,methanol
1212.0,O=c1c2ccccc2sc2ccc(Cl)cc12,CO,mol_1212_solute_opt,mol_1212_solvent_opt,50,31,292.15,-2.3236372316912512,2-chlorothioxanthone (CTX),methanol
1213.0,CC(N)=S,CO,mol_1213_solute_opt,mol_1213_solvent_opt,50,36,273.15,0.3947977246865395,Thioacetamide,methanol
1214.0,O=C(Nc1ccc([N+](=O)[O-])cc1Cl)c1cc(Cl)ccc1O,CO,mol_1214_solute_opt,mol_1214_solvent_opt,50,23,298.15,-2.719101384518449,Niclosamide,methanol
1215.0,C1=CONN=C1,CO,mol_1215_solute_opt,mol_1215_solvent_opt,50,38,293.15,-1.1453828712262184,Oxadiazine,methanol
1216.0,O=[N+]([O-])c1cccc2ccccc12,CO,mol_1216_solute_opt,mol_1216_solvent_opt,50,32,273.15,-0.790556650330841,1-nitronaphthalene,methanol
1217.0,Brc1cnc2[nH]ccc2c1,CO,mol_1217_solute_opt,mol_1217_solvent_opt,50,32,278.15,-0.8227007073472935,5-bromo-7-azaindole,methanol
1218.0,CC1=C[C@H](O)CC(C)(C)[C@H]1/C=C/C(C)=C/C=C/C(C)=C/C=C/C=C(C)/C=C/C=C(C)/C=C/C1=C(C)C[C@@H](O)CC1(C)C,CO,mol_1218_solute_opt,mol_1218_solvent_opt,50,15,278.15,-3.2369401255241588,Lutein,methanol
1219.0,CC(=CC(C)=Nc1c(C)cc(C)cc1C)Nc1c(C)cc(C)cc1C,CO,mol_1219_solute_opt,mol_1219_solvent_opt,50,12,273.15,-1.6938279319441318,"2,4,6-trimethyl-N-[4-(2,4,6-trimethylphenyl)iminopent-2-en-2-yl]aniline",methanol
1220.0,c1ccc2c(CC3=NCCN3)cccc2c1,CO,mol_1220_solute_opt,mol_1220_solvent_opt,50,22,278.15,-0.5769716556656882,Naphazoline nitrate,methanol
1221.0,CCCN(CCc1cccs1)[C@H]1CCc2c(O)cccc2C1,CO,mol_1221_solute_opt,mol_1221_solvent_opt,50,16,278.15,-1.481968849029862,Rotigotine,methanol
1222.0,NC(=O)c1nc(F)cnc1O,CO,mol_1222_solute_opt,mol_1222_solvent_opt,50,36,293.15,-1.439581424842397,Favipiravir,methanol
1223.0,O=C1O[C@H](CO)[C@@H](O)[C@H](O)[C@H]1O,CO,mol_1223_solute_opt,mol_1223_solvent_opt,50,32,288.15,-1.2584621376283305,"1,5-gluconolactone",methanol
1224.0,O=C1CCCCCCCCCCC1,CO,mol_1224_solute_opt,mol_1224_solvent_opt,50,20,278.15,-0.40269346573291,Cyclododecanone,methanol
1225.0,COc1c(C(C)(C)C)cc([N+](=O)[O-])c(C)c1[N+](=O)[O-],CO,mol_1225_solute_opt,mol_1225_solvent_opt,50,23,278.15,-1.1739347790511048,"4-tert-butyl-2,6-dinitro-3-methoxytoluene",methanol
1226.0,Nc1cccc2ccccc12,CO,mol_1226_solute_opt,mol_1226_solvent_opt,50,30,273.15,0.7789042631605244,1-naphthylamine,methanol
1227.0,CCCCC(=O)N(Cc1ccc(-c2ccccc2-c2nn[nH]n2)cc1)[C@H](C(=O)O)C(C)C,CO,mol_1227_solute_opt,mol_1227_solvent_opt,50,14,278.15,0.2904298629291512,Valsartan,methanol
1228.0,CC(=O)N[C@@H](CCC(N)=O)C(=O)O,CO,mol_1228_solute_opt,mol_1228_solvent_opt,50,28,283.15,-1.6134466484891257,N-acetyl-L-glutamine,methanol
1229.0,Oc1ccccc1C=Nc1ccccn1,CO,mol_1229_solute_opt,mol_1229_solvent_opt,50,21,268.15,-0.6903524745062889,2-[(E)-(2-Pyridinylimino)methyl]phenol,methanol
1230.0,Nc1cc(Cl)ccc1[N+](=O)[O-],CO,mol_1230_solute_opt,mol_1230_solvent_opt,50,40,283.15,-0.5795910265659766,5-chloro-2-nitroaniline,methanol
1231.0,Cc1ccc(CO)cc1,CO,mol_1231_solute_opt,mol_1231_solvent_opt,50,34,278.15,-1.0668514092218475,p-methylbenzyl alcohol,methanol
1232.0,NC(=O)Cc1ccc(O)cc1,CO,mol_1232_solute_opt,mol_1232_solvent_opt,50,50,278.15,-0.7214786954725172,4-hydroxyphenylacetamide,methanol
1233.0,CC1CCC(=O)C1=O,CO,mol_1233_solute_opt,mol_1233_solvent_opt,50,38,278.15,0.110338536963011,"3-methyl-1,2-cyclopentanedione",methanol
1234.0,CCN(CC)C(=S)SSC(=S)N(CC)CC,CO,mol_1234_solute_opt,mol_1234_solvent_opt,50,19,273.15,-1.6445681816186035,Disulfiram,methanol
1235.0,CN(CCOc1ccc(CC2SC(=O)NC2=O)cc1)c1ccccn1,CO,mol_1235_solute_opt,mol_1235_solvent_opt,50,21,283.15,-2.460918886977385,Rosiglitazone,methanol
1236.0,CCCCCc1ccc2c(c1)C(=O)c1ccccc1C2=O,CO,mol_1236_solute_opt,mol_1236_solvent_opt,50,22,288.15,-1.487135121676227,2-amyl anthraquinone,methanol
1237.0,OCc1cn(Cc2ccccc2)nn1,CO,mol_1237_solute_opt,mol_1237_solvent_opt,50,28,292.15,0.537058505738428,"(1-benzyl-1H-1,2,3-triazole-4-yl)methanol",methanol
1238.0,CCC[C@@H]1C[C@@H](C(=O)N[C@@H]([C@H]2O[C@H](SC)[C@H](O)[C@H]3OC(C)(C)O[C@H]32)[C@H](C)Cl)N(C)C1,CO,mol_1238_solute_opt,mol_1238_solvent_opt,50,14,273.15,-0.2616235933209964,"3,4-o-isopropylidene clindamycin",methanol
1239.0,ClCc1ccc(Cl)nc1,CO,mol_1239_solute_opt,mol_1239_solvent_opt,50,41,277.25,-1.228002371718767,2-chloro-5-chloromethylpyridine,methanol
1240.0,O=C[C@H](O)[C@H](O)[C@H](O)CO,CO,mol_1240_solute_opt,mol_1240_solvent_opt,50,31,283.15,-0.0932184669682617,D-ribose,methanol
1241.0,N[C@@H](CS)C(=O)O,CO,mol_1241_solute_opt,mol_1241_solvent_opt,50,33,283.15,-1.3458907230602974,L-cysteine,methanol
1242.0,CCCSc1nc(N[C@@H]2C[C@H]2c2ccc(F)c(F)c2)c2nnn([C@@H]3C[C@H](OCCO)[C@@H](O)[C@H]3O)c2n1,CO,mol_1242_solute_opt,mol_1242_solvent_opt,50,13,273.15,-0.9012994717979376,Ticagrelor,methanol
1243.0,c1cnc2[nH]ccc2c1,CO,mol_1243_solute_opt,mol_1243_solvent_opt,50,30,278.15,0.8700144790259868,7-azaindole,methanol
1244.0,O=C1N=c2ccccc2=N1,CO,mol_1244_solute_opt,mol_1244_solvent_opt,50,38,283.15,-1.2014382021845982,2-benzimidazolone,methanol
1245.0,CC(C)(c1ccc(O)cc1)c1ccc(O)cc1,CO,mol_1245_solute_opt,mol_1245_solvent_opt,50,24,273.15,0.7656272749913704,Bisphenol A,methanol
1246.0,O=C(Nc1ccccc1)c1ccccc1,CO,mol_1246_solute_opt,mol_1246_solvent_opt,50,21,274.15,-1.36838025104238,Benzanilide,methanol
1247.0,O=C(O)Cc1ccc([N+](=O)[O-])cc1,CO,mol_1247_solute_opt,mol_1247_solvent_opt,50,35,283.15,0.5512807106816993,4-nitrophenylacetic acid,methanol
1248.0,NS(=O)(=O)Cc1noc2ccccc12,CO,mol_1248_solute_opt,mol_1248_solvent_opt,50,35,273.15,-1.1923569841091373,Zonisamide,methanol
1249.0,CC(=O)Oc1ccccc1C(=O)Nc1ncc([N+](=O)[O-])s1,CO,mol_1249_solute_opt,mol_1249_solvent_opt,50,30,273.15,-2.584383534229315,Nitazoxanide,methanol
1250.0,CCOC(=O)C1(c2ccccc2)CCN(CCC(C#N)(c2ccccc2)c2ccccc2)CC1,CO,mol_1250_solute_opt,mol_1250_solvent_opt,50,14,278.15,-1.0653160744236854,Diphenoxylate,methanol
1251.0,CC1=NN(c2ccccc2)C(=O)C1,CO,mol_1251_solute_opt,mol_1251_solvent_opt,50,27,283.15,-0.3052750814656166,Edaravone,methanol
1252.0,O=c1cc(CBr)c2ccccc2[nH]1,CO,mol_1252_solute_opt,mol_1252_solvent_opt,50,31,273.15,-2.54413797203716,4-(bromomethyl)-2(1H)-quinolinone,methanol
1253.0,OCc1ccccc1O[C@@H]1OC(CO)[C@@H](O)[C@@H](O)C1O,CO,mol_1253_solute_opt,mol_1253_solvent_opt,50,23,283.15,-1.4603394471888127,D(−)-salicin,methanol
1254.0,OC[C@H]1O[C@@H](Oc2ccc(O)cc2)[C@H](O)[C@@H](O)[C@@H]1O,CO,mol_1254_solute_opt,mol_1254_solvent_opt,50,22,283.15,-0.5473790727976602,β-Arbutin,methanol
1255.0,O=C(NCCO[N+](=O)[O-])c1cccnc1,CO,mol_1255_solute_opt,mol_1255_solvent_opt,50,29,278.15,-1.368110088724645,Nicorandil,methanol
1256.0,CCCCS(=O)(=O)N[C@@H](Cc1ccc(OCCCCC2CCNCC2)cc1)C(=O)O,CO,mol_1256_solute_opt,mol_1256_solvent_opt,50,15,278.15,-2.113529401845837,Tirofiban,methanol
1257.0,O=Cc1cc(Br)c(O)c(Br)c1,CO,mol_1257_solute_opt,mol_1257_solvent_opt,50,35,278.15,-1.3084810587944176,"3,5-dibromo-4-hydroxybenzaldehyde",methanol
1258.0,Nc1cc(-c2ccncc2)c[nH]c1=O,CO,mol_1258_solute_opt,mol_1258_solvent_opt,50,28,278.15,-2.8857087944398767,Amrinone,methanol
1259.0,CC(C)OC(=O)C(C)(C)Oc1ccc(C(=O)c2ccc(Cl)cc2)cc1,CO,mol_1259_solute_opt,mol_1259_solvent_opt,50,14,253.15,-1.8088242366582337,Fenofibrate,methanol
1260.0,NC(=O)c1ccccc1O,CO,mol_1260_solute_opt,mol_1260_solvent_opt,50,38,253.15,-0.5028118404753127,Salicylamide,methanol
1261.0,O=C(O)c1ccccc1O,CO,mol_1261_solute_opt,mol_1261_solvent_opt,50,35,253.15,0.2216224482806149,Salicylic acid,methanol
1262.0,COc1cc2nc(Cl)nc(N)c2cc1OC,CO,mol_1262_solute_opt,mol_1262_solvent_opt,50,23,273.15,-2.5593933588688285,"2-chloro-4-amino-6,7-dimethoxyquinazoline",methanol
1263.0,O=C(O)Cc1ccccc1[N+](=O)[O-],CO,mol_1263_solute_opt,mol_1263_solvent_opt,50,32,283.15,0.0278732459674536,2-nitrophenylacetic acid,methanol
1264.0,C=CC(=O)NC(C)(C)CS(=O)(=O)O,CO,mol_1264_solute_opt,mol_1264_solvent_opt,50,40,283.15,-0.6363455112144072,2-acrylamide-2-methylpropanesulfonic acid,methanol
1265.0,CCCOC(=O)c1ccc(O)cc1,CO,mol_1265_solute_opt,mol_1265_solvent_opt,50,27,283.15,0.4514707389123564,Propylparaben,methanol
1266.0,O=C1CC[C@@H](C(=O)N2CSC[C@H]2C(=O)O)N1,CO,mol_1266_solute_opt,mol_1266_solvent_opt,50,24,278.15,-1.5179380603988375,Pidotimod,methanol
1267.0,CCS(=O)(=O)c1cccnc1S(=O)(=O)NC(=O)Nc1nc(OC)cc(OC)n1,CO,mol_1267_solute_opt,mol_1267_solvent_opt,50,30,278.15,-3.2627402797869114,Rimsulfuron,methanol
1268.0,Nc1ccc(Cc2ccc(N)c(Cl)c2)cc1Cl,CO,mol_1268_solute_opt,mol_1268_solvent_opt,50,25,283.15,-0.3820217735316633,"4,4′-methylene-bis-(2-chloroaniline)",methanol
1269.0,O=Cc1cc(C=O)cc(C=O)c1,CO,mol_1269_solute_opt,mol_1269_solvent_opt,50,33,283.15,-1.0560915906811026,"1,3,5-triformylbenzene",methanol
1270.0,O=C(O)[C@@H]1C[C@@H](O)CN1,CO,mol_1270_solute_opt,mol_1270_solvent_opt,50,33,283.15,-2.49856993447153,L-hydroxyproline,methanol
1271.0,CC(=O)O[C@]1(C(C)=O)CC[C@H]2[C@@H]3C=C(Cl)C4=CC(=O)[C@@H]5C[C@@H]5[C@]4(C)[C@H]3CC[C@@]21C,CO,mol_1271_solute_opt,mol_1271_solvent_opt,50,20,273.15,-2.238127982810524,Cyproterone acetate,methanol
1272.0,OCC(O)COc1ccc(Cl)cc1,CO,mol_1272_solute_opt,mol_1272_solvent_opt,50,27,288.15,0.3542944631901122,Chlorphenesin,methanol
1273.0,CCn1c2ccccc2c2cc(-n3nncc3-c3ccccc3)ccc21,CO,mol_1273_solute_opt,mol_1273_solvent_opt,50,14,279.3,-1.9884956949675952,MBQ-167,methanol
1274.0,O=C(O)[C@@H]1CSCN1,CO,mol_1274_solute_opt,mol_1274_solvent_opt,50,32,283.15,-2.86204223798171,L-thioproline,methanol
1275.0,O[C@H]1[C@H](O)[C@@H](O)[C@H](O)[C@@H](O)[C@H]1O,CO,mol_1275_solute_opt,mol_1275_solvent_opt,50,24,283.15,-3.2769039611977395,Myo-inositol,methanol
1276.0,NC1CCSC1=O,CO,mol_1276_solute_opt,mol_1276_solvent_opt,50,35,283.15,-0.4070522758157568,DL-homocysteine thiolactone hydrochloride,methanol
1277.0,CC(=O)N1CCC[C@H]1C(=O)O,CO,mol_1277_solute_opt,mol_1277_solvent_opt,50,29,283.15,0.5417324560252603,N-acetyl-L-proline,methanol
1278.0,O=C(O)c1ccc(CO)cc1,CO,mol_1278_solute_opt,mol_1278_solvent_opt,50,28,283.15,-0.1405496541429958,4-(hydroxymethyl) benzoic acid,methanol
1279.0,CC(=O)Nc1ccccc1[N+](=O)[O-],CO,mol_1279_solute_opt,mol_1279_solvent_opt,50,33,278.15,-0.3351766491234499,o-nitroacetanilide,methanol
1280.0,COc1cc2c(cc1OC)C(=O)CC2,CO,mol_1280_solute_opt,mol_1280_solvent_opt,50,26,283.15,-0.611243051323662,"5,6-dimethoxy-1-indanone",methanol
1281.0,Cc1cc(Cl)cc(C(=O)O)c1N,CO,mol_1281_solute_opt,mol_1281_solvent_opt,50,31,278.15,-1.4910252294841413,2-amino-5-chloro-3-methylbenzoic acid,methanol
1282.0,O=C(O)CNCc1ccccc1,CO,mol_1282_solute_opt,mol_1282_solvent_opt,50,31,283.15,-1.265226254521855,N-benzylglycine,methanol
1283.0,Nc1cccc(S(=O)(=O)c2cccc(N)c2)c1,CO,mol_1283_solute_opt,mol_1283_solvent_opt,50,14,283.15,-1.09670454596623,"3,3′-diaminodiphenyl sulfone",methanol
1284.0,CSCCC(NC(C)=O)C(=O)O,CO,mol_1284_solute_opt,mol_1284_solvent_opt,50,25,283.15,0.3332018747552144,N-acetyl-DL-methionine,methanol
1285.0,OCC(CO)(CO)CO,CO,mol_1285_solute_opt,mol_1285_solvent_opt,50,35,283.15,-1.6392346224998218,Pentaerythritol,methanol
1286.0,Cc1c(N)cccc1C(=O)O,CO,mol_1286_solute_opt,mol_1286_solvent_opt,50,32,288.15,-0.8771580159808546,3-amino-2-methylbenzoic acid,methanol
1287.0,c1ccc(-n2c(-c3cc(-c4nc5ccccc5n4-c4ccccc4)cc(-c4nc5ccccc5n4-c4ccccc4)c3)nc3ccccc32)cc1,CO,mol_1287_solute_opt,mol_1287_solvent_opt,50,8,283.15,-2.229414305765381,"1,3,5-tris(1-phenyl-1H-benzimidazol-2-yl)benzene",methanol
1288.0,O=C(O)c1cccc(C(=O)O)n1,CO,mol_1288_solute_opt,mol_1288_solvent_opt,50,32,278.15,-0.9459975461095758,"2,6-pyridinedicarboxylic acid",methanol
1289.0,CC(C)(C)OC(=O)N1CCC[C@H]1C(=O)O,CO,mol_1289_solute_opt,mol_1289_solvent_opt,50,18,283.15,0.5097703504152851,Boc-L-proline,methanol
1290.0,CNC(=O)c1cc(Oc2ccc(N)cc2)ccn1,CO,mol_1290_solute_opt,mol_1290_solvent_opt,50,19,278.15,-0.6020742047387192,4-[2-(n-methylcarbamyl)-4-pyridyloxy]aniline,methanol
1291.0,O=C(N[C@H](C(=O)O)c1ccccc1)OCc1ccccc1,CO,mol_1291_solute_opt,mol_1291_solvent_opt,50,21,283.15,-0.0767353994535157,N-carbobenzoxy-L-2-phenylglycine,methanol
1292.0,Nc1cccc(C(=O)O)c1,CO,mol_1292_solute_opt,mol_1292_solvent_opt,50,28,283.15,-0.5180045128693562,M-aminobenzoic acid,methanol
1293.0,O=C(O)c1cccc([N+](=O)[O-])c1O,CO,mol_1293_solute_opt,mol_1293_solvent_opt,50,29,278.15,0.0092265238608884,3-nitrosalicylic acid,methanol
1294.0,COC(=O)c1sccc1S(=O)(=O)NC(=O)Nc1nc(C)nc(OC)n1,CO,mol_1294_solute_opt,mol_1294_solvent_opt,50,29,278.15,-2.6316598857826152,Thifensulfuron methyl,methanol
1295.0,CNC(=O)c1cc(Oc2ccc(NC(=O)Nc3ccc(Cl)c(C(F)(F)F)c3)cc2)ccn1,CO,mol_1295_solute_opt,mol_1295_solvent_opt,50,15,273.15,-2.011637528491049,Sorafenib,methanol
1296.0,CNc1nc(C)nc(OC)n1,CO,mol_1296_solute_opt,mol_1296_solvent_opt,50,25,278.15,0.2538065319827124,"2-methyl-4-methylamino-6-methoxy-1,3,5-triazine",methanol
1297.0,O=C1CCc2cc(OCCCCc3nnnn3C3CCCCC3)ccc2N1,CO,mol_1297_solute_opt,mol_1297_solvent_opt,50,14,273.15,-2.18553372517376,Cilostazol,methanol
1298.0,COCCOc1ccccc1S(=O)(=O)NC(=O)Nc1nc(OC)nc(OC)n1,CO,mol_1298_solute_opt,mol_1298_solvent_opt,50,22,278.15,-1.2808418351733593,Cinosulfuron,methanol
1299.0,Cn1c([N+](=O)[O-])cnc1N1CCN(S(C)(=O)=O)C1=O,CO,mol_1299_solute_opt,mol_1299_solvent_opt,50,34,293.2,-1.924752461651016,Satranidazole,methanol
1300.0,C#C[C@]1(O)C=C[C@H]2[C@@H]3CCC4=CC(=O)CC[C@@H]4[C@H]3CC[C@@]21CC,CO,mol_1300_solute_opt,mol_1300_solvent_opt,50,16,283.15,-0.940523339514328,Gestodene,methanol
1301.0,O=C(NC(=O)c1c(F)cccc1F)Nc1ccc(Oc2ccc(C(F)(F)F)cc2Cl)cc1F,CO,mol_1301_solute_opt,mol_1301_solvent_opt,50,21,278.15,0.1342486651940191,Flufenoxuron,methanol
1302.0,CSc1nc2cc(Oc3cccc(Cl)c3Cl)c(Cl)cc2[nH]1,CO,mol_1302_solute_opt,mol_1302_solvent_opt,50,26,278.15,-1.0262439894137818,Triclabendazole,methanol
1303.0,COc1cc(C=O)cc(OC)c1OC,CO,mol_1303_solute_opt,mol_1303_solvent_opt,50,27,278.15,-0.8116790568035444,"3,4,5-trimethoxybenzaldehyde",methanol
1304.0,O=C(O)CSc1ccc2ccccc2c1,CO,mol_1304_solute_opt,mol_1304_solvent_opt,50,26,278.15,-1.8748936008356312,(2-naphthylthio)acetic acid,methanol
1305.0,COC(=O)CC[C@H](N)C(=O)O,CO,mol_1305_solute_opt,mol_1305_solvent_opt,50,30,283.15,-1.5404757396005238,L-glutamic acid 5-methyl ester,methanol
1306.0,Nc1cnc(Cl)cn1,CO,mol_1306_solute_opt,mol_1306_solvent_opt,50,36,278.15,-1.0951778008778117,5-chloropyrazin-2-amine,methanol
1307.0,CO/N=C1\C[C@]2(C[C@@H]3C[C@@H](C/C=C(\C)C[C@@H](C)/C=C/C=C4\CO[C@@H]5[C@H](O)C(C)=C[C@@H](C(=O)O3)[C@]45O)O2)O[C@H](/C(C)=C/C(C)C)[C@H]1C,CO,mol_1307_solute_opt,mol_1307_solvent_opt,50,11,278.15,-0.2035194748207036,Moxidectin,methanol
1308.0,O=C(NC(=O)c1c(F)cccc1F)Nc1cc(Cl)c(F)c(Cl)c1F,CO,mol_1308_solute_opt,mol_1308_solvent_opt,50,21,278.15,0.2574247577064652,Teflubenzuron,methanol
1309.0,O=C(O)CNC(=O)OCc1ccccc1,CO,mol_1309_solute_opt,mol_1309_solvent_opt,50,22,283.15,0.2426936547727516,N-carbobenzyloxyglycine,methanol
1310.0,CC(C)(C)OC(=O)N[C@@H](CC(N)=O)C(=O)O,CO,mol_1310_solute_opt,mol_1310_solvent_opt,50,23,283.15,-0.792573475013138,Boc-L-asparagine,methanol
1311.0,O=C(O)c1ccc(-c2ccccc2)cc1,CO,mol_1311_solute_opt,mol_1311_solvent_opt,50,27,293.15,-1.1998885964050576,4-biphenylcarboxylic acid,methanol
1312.0,CCOc1ccc(C=O)cc1O,CO,mol_1312_solute_opt,mol_1312_solvent_opt,50,28,283.15,-0.7419580863887579,Iso-ethylvanillin,methanol
1313.0,CCOc1ccc(NC(C)=O)cc1,CO,mol_1313_solute_opt,mol_1313_solvent_opt,50,27,283.15,-0.5628686398284223,Phenacetin,methanol
1314.0,NC(=O)C[C@H](NC(=O)OCc1ccccc1)C(=O)O,CO,mol_1314_solute_opt,mol_1314_solvent_opt,50,25,283.15,-1.3611232354496337,N-benzyloxycarbonyl-L-asparagine,methanol
1315.0,CCc1nc(N)nc(N)c1-c1ccc(Cl)cc1,CO,mol_1315_solute_opt,mol_1315_solvent_opt,50,20,278.15,-1.667929632149151,Pyrimethamine,methanol
1316.0,C=CC(=O)NC(C)(C)CC(C)=O,CO,mol_1316_solute_opt,mol_1316_solvent_opt,50,22,272.15,0.9062030630507996,Diacetone acrylamide,methanol
1317.0,CC(=O)Nc1ccc([N+](=O)[O-])cc1,CO,mol_1317_solute_opt,mol_1317_solvent_opt,50,33,278.15,-1.431261880976817,p-Nitroacetanilide,methanol
1318.0,CC(=O)OC(OC(C)=O)c1ccc([N+](=O)[O-])o1,CO,mol_1318_solute_opt,mol_1318_solvent_opt,50,22,278.15,0.3263450356772357,2-(diacetoxymethyl)-5-nitrofuran,methanol
1319.0,NC(N)=NCCC[C@H](NC(=O)OCc1ccccc1)C(=O)O,CO,mol_1319_solute_opt,mol_1319_solvent_opt,50,19,283.15,-1.9323511882458144,Nα-carbobenzyloxy-L-arginine,methanol
1320.0,O=C([O-])c1nc[nH]n1,CO,mol_1320_solute_opt,mol_1320_solvent_opt,50,45,278.45,-1.130440239182162,"Methyl 1,2,4-triazole-3-carboxylate",methanol
1321.0,CS(N)(=O)=O,CO,mol_1321_solute_opt,mol_1321_solvent_opt,50,44,283.27,0.2990486593574752,Methanesulfonamide,methanol
1322.0,O=C(O)c1cc([N+](=O)[O-])ccc1O,CO,mol_1322_solute_opt,mol_1322_solvent_opt,50,39,278.15,-0.086603096078384,5-nitroSalicylic acid,methanol
1323.0,Nc1nccnc1Cl,CO,mol_1323_solute_opt,mol_1323_solvent_opt,50,39,278.15,-1.1460234067771364,2-amino-3-chloropyrazine,methanol
1324.0,O=c1cc(-c2ccccc2)oc2c1ccc1ccccc12,CO,mol_1324_solute_opt,mol_1324_solvent_opt,50,23,273.2,-1.744501538004892,α-Naphthoflavone,methanol
1325.0,O=C1c2ccccc2-c2ccc(Br)cc21,CO,mol_1325_solute_opt,mol_1325_solvent_opt,50,33,278.15,-2.2693027211148524,2-bromo-9-fluorenone,methanol
1326.0,NC(=O)Nc1ccccc1,CO,mol_1326_solute_opt,mol_1326_solvent_opt,50,37,283.15,-0.1676872730309699,1-phenylurea,methanol
1327.0,Nc1ccccn1,CO,mol_1327_solute_opt,mol_1327_solvent_opt,50,30,273.15,1.2201189211396892,2-aminopyridine,methanol
1328.0,O=[N+]([O-])c1cc([N+](=O)[O-])c(Cl)cc1Cl,CO,mol_1328_solute_opt,mol_1328_solvent_opt,50,38,298.15,-0.6379040653643422,"1,5-dichloro-2,4-dinitrobenzene",methanol
1329.0,CC(C)(C)NCC(O)c1ccc(O)c(CO)c1,CO,mol_1329_solute_opt,mol_1329_solvent_opt,50,14,283.15,-0.8226116204515506,Salbutamol,methanol
1330.0,O=C(O)c1ccc(Br)cn1,CO,mol_1330_solute_opt,mol_1330_solvent_opt,50,31,278.15,-0.7004032930866656,5-bromo-2-pyridinecarboxylic acid,methanol
1331.0,O=c1[nH]nc([N+](=O)[O-])[nH]1,CO,mol_1331_solute_opt,mol_1331_solvent_opt,50,46,278.15,-0.6346837695790899,"3-nitro-1,2,4-triazol-5-one",methanol