pair_id,SMILES_Solute,SMILES_Solvent,Solute_name,Solvent_name,Total_conformers,Filtered_conformers,Temperature_K,LogS,Compound_Name,Solvent
1717.0,CO[C@@]1(NC(=O)Cc2cccs2)C(=O)N2C(C(=O)O)=C(COC(N)=O)CS[C@@H]21,CC(C)O,mol_1717_solute_opt,mol_1717_solvent_opt,50,31,278.15,-3.233004887951063,Cefoxitin acid,isopropanol
1718.0,CC1=NN(c2ccc(C)cc2)C(=O)C1,CC(C)O,mol_1718_solute_opt,mol_1718_solvent_opt,50,35,278.15,-0.8065727968698801,"2,4-dihydro-5-methyl-2-(4-methylphenyl)-3H-pyrazol-3-one",isopropanol
1719.0,O=C(O)c1ccccc1Nc1ccccc1,CC(C)O,mol_1719_solute_opt,mol_1719_solvent_opt,50,34,283.15,-1.1031446722882972,N-phenylanthranilic acid,isopropanol
1720.0,Cc1ccc(S(C)(=O)=O)cc1,CC(C)O,mol_1720_solute_opt,mol_1720_solvent_opt,50,35,278.15,-1.256307362092672,1-methyl-4-(methylsulfonyl)benzene,isopropanol
1721.0,C=CC(=O)N1CCC[C@@H](n2nc(-c3ccc(Oc4ccccc4)cc3)c3c(N)ncnc32)C1,CC(C)O,mol_1721_solute_opt,mol_1721_solvent_opt,50,29,278.15,-2.26468194393013,Ibrutinib,isopropanol
1722.0,NC(=O)N1c2ccccc2CC(=O)c2ccccc21,CC(C)O,mol_1722_solute_opt,mol_1722_solvent_opt,50,36,288.15,-2.702206034957492,Oxcarbazepine,isopropanol
1723.0,O=Cc1ccc([N+](=O)[O-])cc1,CC(C)O,mol_1723_solute_opt,mol_1723_solvent_opt,50,49,273.15,-1.359073753233311,4-nitrobenzaldehyde,isopropanol
1724.0,C[C@@H]1O[C@@H](OC[C@H]2O[C@@H](Oc3c(-c4ccc(OCCO)c(OCCO)c4)oc4cc(OCCO)cc(O)c4c3=O)[C@H](O)[C@@H](O)[C@@H]2O)[C@H](O)[C@H](O)[C@H]1O,CC(C)O,mol_1724_solute_opt,mol_1724_solvent_opt,50,23,288.15,-2.912725225850126,Troxerutin,isopropanol
1725.0,Nc1nnc[nH]1,CC(C)O,mol_1725_solute_opt,mol_1725_solvent_opt,50,44,283.15,-1.250777854716385,"3-amino-1,2,4-triazole",isopropanol
1726.0,CC(C)(C)[C@H](O)[C@H](Cc1ccc(Cl)cc1)n1cncn1,CC(C)O,mol_1726_solute_opt,mol_1726_solvent_opt,50,33,278.15,-1.023914031681945,Paclobutrazol,isopropanol
1727.0,Cn1cnc([N+](=O)[O-])c1Cl,CC(C)O,mol_1727_solute_opt,mol_1727_solvent_opt,50,41,283.15,-1.8457688829411167,5-chloro-1-methyl-4-nitroimidazole,isopropanol
1728.0,CC(C)C(=O)OCC(=O)[C@@]12O[C@H](C3CCCCC3)O[C@@H]1C[C@H]1[C@@H]3CCC4=CC(=O)C=C[C@]4(C)[C@H]3[C@@H](O)C[C@@]12C,CC(C)O,mol_1728_solute_opt,mol_1728_solvent_opt,50,28,278.15,-0.962302645194479,Ciclesonide,isopropanol
1729.0,COc1cc(Cl)nc(N)n1,CC(C)O,mol_1729_solute_opt,mol_1729_solvent_opt,50,46,273.15,-1.8209257095724107,2-amino-4-chloro-6-methoxypyrimidine,isopropanol
1730.0,CC[C@H](C)[C@H]1O[C@]2(C=C[C@@H]1C)C[C@@H]1C[C@@H](C/C=C(\C)[C@@H](O[C@H]3C[C@H](OC)[C@@H](O[C@H]4C[C@H](OC)[C@@H](O)[C@H](C)O4)[C@H](C)O3)[C@@H](C)/C=C/C=C3\CO[C@@H]4[C@H](O)C(C)=C[C@@H](C(=O)O1)[C@]34O)O2,CC(C)O,mol_1730_solute_opt,mol_1730_solvent_opt,50,18,283.15,-1.1949800483042312,Avermectin B1a,isopropanol
1731.0,Cc1cc([N+](=O)[O-])ccc1N,CC(C)O,mol_1731_solute_opt,mol_1731_solvent_opt,50,45,278.15,-1.2126659876783776,2-methyl-4-nitroaniline,isopropanol
1732.0,O=Cc1cccc([N+](=O)[O-])c1,CC(C)O,mol_1732_solute_opt,mol_1732_solvent_opt,50,45,273.15,-1.072510864357754,3-nitrobenzaldehyde,isopropanol
1733.0,Nc1ccc([N+](=O)[O-])cc1N,CC(C)O,mol_1733_solute_opt,mol_1733_solvent_opt,50,43,283.15,-2.048872916358873,"4-nitro-1,2-phenylenediamine",isopropanol
1734.0,Nc1cc(Cl)ccc1C(=O)O,CC(C)O,mol_1734_solute_opt,mol_1734_solvent_opt,50,42,278.15,-0.9061568776040004,2-amino-4-chlorobenzoic acid,isopropanol
1735.0,Clc1ccc2c(c1)Nc1ccccc1S2,CC(C)O,mol_1735_solute_opt,mol_1735_solvent_opt,50,46,283.15,-1.2975337455606824,2-chlorophenothiazine,isopropanol
1736.0,COc1cc(CO)ccc1O,CC(C)O,mol_1736_solute_opt,mol_1736_solvent_opt,50,38,293.15,-0.4178234848261488,Vanillyl alcohol,isopropanol
1737.0,CC(C)(C)C(O)(CCc1ccc(Cl)cc1)Cn1cncn1,CC(C)O,mol_1737_solute_opt,mol_1737_solvent_opt,50,35,278.15,-0.9296515181240272,Tebuconazole,isopropanol
1738.0,CC(C)c1ncc[nH]1,CC(C)O,mol_1738_solute_opt,mol_1738_solvent_opt,50,40,278.15,0.0251289939199892,2-isopropylimidazole,isopropanol
1739.0,Nc1ccc(N)c([N+](=O)[O-])c1,CC(C)O,mol_1739_solute_opt,mol_1739_solvent_opt,50,43,283.15,-1.3128308178990662,2-nitro-p-phenylenediamine,isopropanol
1740.0,Cc1ccc(N)c([N+](=O)[O-])c1,CC(C)O,mol_1740_solute_opt,mol_1740_solvent_opt,50,41,278.15,-0.8634239515280837,4-methyl-2-nitroaniline,isopropanol
1741.0,Cc1cc(C)[nH]n1,CC(C)O,mol_1741_solute_opt,mol_1741_solvent_opt,50,39,283.15,0.2340444170385736,"3,5-dimethylpyrazole",isopropanol
1742.0,Cc1c(C(=O)O)cccc1[N+](=O)[O-],CC(C)O,mol_1742_solute_opt,mol_1742_solvent_opt,50,42,283.15,-0.7619459045260285,2-methyl-3-nitrobenzoic acid,isopropanol
1743.0,NC(=O)c1cnccn1,CC(C)O,mol_1743_solute_opt,mol_1743_solvent_opt,50,41,278.15,-2.084517113273743,Pyrazinamide,isopropanol
1744.0,O=C(Nc1ccccc1-c1ccc(Cl)cc1)c1cccnc1Cl,CC(C)O,mol_1744_solute_opt,mol_1744_solvent_opt,50,34,288.15,-1.9692038779505088,Boscalid,isopropanol
1745.0,c1ccc(-c2nnn[nH]2)cc1,CC(C)O,mol_1745_solute_opt,mol_1745_solvent_opt,50,41,283.15,-0.7237823443065606,5-phenyltetrazole,isopropanol
1746.0,S=c1[nH]c2ccccc2s1,CC(C)O,mol_1746_solute_opt,mol_1746_solvent_opt,50,46,273.15,-0.8924719500559756,2-mercaptobenzothiazole,isopropanol
1747.0,O=C1O[C@H]([C@@H](O)CO)C(O)=C1O,CC(C)O,mol_1747_solute_opt,mol_1747_solvent_opt,50,35,293.15,-1.5363361387646466,Vitamin C,isopropanol
1748.0,Nc1ccc(S(=O)(=O)c2ccc(N)cc2)cc1,CC(C)O,mol_1748_solute_opt,mol_1748_solvent_opt,50,27,278.15,-1.4517498751914866,Dapsone,isopropanol
1749.0,N[C@H](Cc1c[nH]c2ccccc12)C(=O)O,CC(C)O,mol_1749_solute_opt,mol_1749_solvent_opt,50,33,283.15,-3.768934608995417,D-tryptophan,isopropanol
1750.0,Cc1c(C(=O)/C=C/c2ccccc2)[n+](=O)c2ccccc2n1[O-],CC(C)O,mol_1750_solute_opt,mol_1750_solvent_opt,50,34,283.15,-2.9682496686204867,Quinocetone,isopropanol
1751.0,COc1cc(/C=C/C(=O)CC(=O)/C=C/c2ccc(O)c(OC)c2)ccc1O,CC(C)O,mol_1751_solute_opt,mol_1751_solvent_opt,50,29,278.15,-1.711787283585014,Curcumin,isopropanol
1752.0,Nc1cccc2c1CN(C1CCC(=O)NC1=O)C2=O,CC(C)O,mol_1752_solute_opt,mol_1752_solvent_opt,50,32,293.15,-3.0794872209650923,Lenalidomide,isopropanol
1753.0,CCCc1cc(=O)[nH]c(=S)[nH]1,CC(C)O,mol_1753_solute_opt,mol_1753_solvent_opt,50,37,278.15,-1.6857520123412133,Propylthiouracil,isopropanol
1754.0,c1ccc2c(c1)CCc1ccccc1N2,CC(C)O,mol_1754_solute_opt,mol_1754_solvent_opt,50,38,283.15,-2.2273834442467835,Iminodibenzyl,isopropanol
1755.0,Cc1c(C(N)=O)cc([N+](=O)[O-])cc1[N+](=O)[O-],CC(C)O,mol_1755_solute_opt,mol_1755_solvent_opt,50,35,283.15,-1.803889533067492,Dinitolmide,isopropanol
1756.0,O=c1cc(O)c(Cl)c[nH]1,CC(C)O,mol_1756_solute_opt,mol_1756_solvent_opt,50,40,283.15,-1.4943483735358667,Gimeracil,isopropanol
1757.0,O=C1NS(=O)(=O)c2ccccc21,CC(C)O,mol_1757_solute_opt,mol_1757_solvent_opt,50,44,278.15,-1.2927511291900742,Saccharin,isopropanol
1758.0,COc1ccccc1N1CCN(CC(O)COc2cccc3ccccc23)CC1,CC(C)O,mol_1758_solute_opt,mol_1758_solvent_opt,50,29,288.15,-2.0272401568793312,Naftopidil,isopropanol
1759.0,O=C1CCc2ccc(OCCCCN3CCN(c4cccc(Cl)c4Cl)CC3)cc2N1,CC(C)O,mol_1759_solute_opt,mol_1759_solvent_opt,50,25,278.15,-4.075825574135374,Aripiprazole,isopropanol
1760.0,Cc1c([N+](=O)[O-])c(C)c([N+](=O)[O-])c(C(C)(C)C)c1[N+](=O)[O-],CC(C)O,mol_1760_solute_opt,mol_1760_solvent_opt,50,33,278.15,-1.7683708562041072,Musk xylene,isopropanol
1761.0,Cn1nnc2c(C(N)=O)ncn2c1=O,CC(C)O,mol_1761_solute_opt,mol_1761_solvent_opt,50,43,273.15,-3.531678011554818,Temozolomide,isopropanol
1762.0,COC(=O)Nc1nc2ccc(Sc3ccccc3)cc2[nH]1,CC(C)O,mol_1762_solute_opt,mol_1762_solvent_opt,50,36,273.15,-3.571554158095521,Fenbendazole,isopropanol
1763.0,O=P1(O)Oc2ccc3ccccc3c2-c2c(ccc3ccccc23)O1,CC(C)O,mol_1763_solute_opt,mol_1763_solvent_opt,50,31,288.15,-1.349831276127436,"1,1′-binaphthyl-2,2′-diyl hydrogenphosphate",isopropanol
1764.0,CC1(C)S[C@@H]2[C@H](NC(=O)[C@H](N)c3ccc(O)cc3)C(=O)N2[C@H]1C(=O)O,CC(C)O,mol_1764_solute_opt,mol_1764_solvent_opt,50,28,278.15,-1.8636141799483008,Amoxicillin,isopropanol
1765.0,O=Cc1cc([N+](=O)[O-])ccc1O,CC(C)O,mol_1765_solute_opt,mol_1765_solvent_opt,50,40,273.15,-1.580780165676366,5-nitrosalicylaldehyde,isopropanol
1766.0,NC(=O)N/N=C/c1ccc([N+](=O)[O-])o1,CC(C)O,mol_1766_solute_opt,mol_1766_solvent_opt,50,37,278.15,-3.038290569485266,5-nitrofurazone,isopropanol
1767.0,Oc1ccc(OCc2ccccc2)cc1,CC(C)O,mol_1767_solute_opt,mol_1767_solvent_opt,50,39,283.15,-0.5332777198909429,Monobenzone,isopropanol
1768.0,O=C(NC(Cc1cc(=O)[nH]c2ccccc12)C(=O)O)c1ccc(Cl)cc1,CC(C)O,mol_1768_solute_opt,mol_1768_solvent_opt,50,37,278.15,-3.493908872253792,Rebamipide,isopropanol
1769.0,O=c1[nH]c(=O)n(C2CCCO2)cc1F,CC(C)O,mol_1769_solute_opt,mol_1769_solvent_opt,50,39,273.15,-1.9392381417684847,β tegafur,isopropanol
1770.0,Cn1c(=O)c2c(ncn2CC2OCCO2)n(C)c1=O,CC(C)O,mol_1770_solute_opt,mol_1770_solvent_opt,50,31,273.15,-2.0676522355269444,Doxofylline,isopropanol
1771.0,O=c1ccc(-c2ccccc2)n[nH]1,CC(C)O,mol_1771_solute_opt,mol_1771_solvent_opt,50,37,278.15,-1.261164650744503,6-phenyl-3(2H)-pyridazinone,isopropanol
1772.0,N#Cc1ccc2c(c1)OCO2,CC(C)O,mol_1772_solute_opt,mol_1772_solvent_opt,50,42,278.15,-1.199925615461807,Piperonylonitrile,isopropanol
1773.0,COc1ccc(-n2nc(C(N)=O)c3c2C(=O)N(c2ccc(N4CCCCC4=O)cc2)CC3)cc1,CC(C)O,mol_1773_solute_opt,mol_1773_solvent_opt,50,22,288.15,-3.0945415371800253,Apixaban,isopropanol
1774.0,CC(C)(Oc1ccc(CCNC(=O)c2ccc(Cl)cc2)cc1)C(=O)O,CC(C)O,mol_1774_solute_opt,mol_1774_solvent_opt,50,24,283.15,-1.696351848004943,Bezafibrate,isopropanol
1775.0,O=c1c2ccccc2nc2n1CCc1c-2[nH]c2ccccc12,CC(C)O,mol_1775_solute_opt,mol_1775_solvent_opt,50,38,283.15,-3.005968412799944,Rutaecarpine,isopropanol
1776.0,Clc1ccccc1C(c1ccccc1)(c1ccccc1)n1ccnc1,CC(C)O,mol_1776_solute_opt,mol_1776_solvent_opt,50,35,278.15,-0.9800843424101012,Clotrimazole,isopropanol
1777.0,COCCOC(=O)C1=C(C)NC(C)=C(C(=O)OC(C)C)C1c1cccc([N+](=O)[O-])c1,CC(C)O,mol_1777_solute_opt,mol_1777_solvent_opt,50,29,278.15,-0.8016797944771898,Nimodipine,isopropanol
1778.0,CC(=O)Nc1ccc(OC(=O)c2ccccc2OC(C)=O)cc1,CC(C)O,mol_1778_solute_opt,mol_1778_solvent_opt,50,39,278.15,-2.6917187908578155,Benorilate,isopropanol
1779.0,CC#CCn1c(N2CCC[C@@H](N)C2)nc2c1c(=O)n(Cc1nc(C)c3ccccc3n1)c(=O)n2C,CC(C)O,mol_1779_solute_opt,mol_1779_solvent_opt,50,27,273.15,-2.5179857937291383,Linagliptin,isopropanol
1780.0,Cc1ccc(Nc2nccc(N(C)c3ccc4c(C)n(C)nc4c3)n2)cc1S(N)(=O)=O,CC(C)O,mol_1780_solute_opt,mol_1780_solvent_opt,50,20,288.15,-3.906594634511209,Pazopanib,isopropanol
1781.0,CCCNS(=O)(=O)Nc1ncnc(OCCOc2ncc(Br)cn2)c1-c1ccc(Br)cc1,CC(C)O,mol_1781_solute_opt,mol_1781_solvent_opt,50,41,273.15,-3.201991976704667,Macitentan,isopropanol
1782.0,Nc1cccc2c1C(=O)N(C1CCC(=O)NC1=O)C2=O,CC(C)O,mol_1782_solute_opt,mol_1782_solvent_opt,50,26,278.15,-5.514748737909529,Pomalidomide,isopropanol
1783.0,CN1CCN(C2=Nc3cc(Cl)ccc3Nc3ccccc32)CC1,CC(C)O,mol_1783_solute_opt,mol_1783_solvent_opt,50,34,278.15,-1.4320068438994489,Clozapine,isopropanol
1784.0,CC(=O)Nc1ccc(C(=O)O)cc1,CC(C)O,mol_1784_solute_opt,mol_1784_solvent_opt,50,39,283.15,-1.1392057075152893,p-acetamidobenzoic acid,isopropanol
1785.0,Clc1ncnc2[nH]ccc12,CC(C)O,mol_1785_solute_opt,mol_1785_solvent_opt,50,44,278.15,-0.8841174559451601,6-chloro-7-azapurine,isopropanol
1786.0,CCOc1ccccc1C(N)=O,CC(C)O,mol_1786_solute_opt,mol_1786_solvent_opt,50,35,293.15,-0.8925589504023344,Ethenzamide,isopropanol
1787.0,O=C(O)COc1ccc(Cl)cc1Cl,CC(C)O,mol_1787_solute_opt,mol_1787_solvent_opt,50,36,278.15,-0.2302949546204853,"2,4-dichlorophenoxyacetic acid",isopropanol
1788.0,S=C(Nc1ccccc1)Nc1ccccc1,CC(C)O,mol_1788_solute_opt,mol_1788_solvent_opt,50,32,283.15,-1.949630703028868,"N,N'-diphenyl thiourea (DPTU)",isopropanol
1789.0,CC(C)C(=O)Nc1ccc([N+](=O)[O-])c(C(F)(F)F)c1,CC(C)O,mol_1789_solute_opt,mol_1789_solvent_opt,50,32,278.15,-0.0847998007041863,Flutamide,isopropanol
1790.0,c1ccc2[nH]c(-c3cscn3)nc2c1,CC(C)O,mol_1790_solute_opt,mol_1790_solvent_opt,50,39,283.15,-2.0450303679628354,Thiabendazole,isopropanol
1791.0,CC(CO)(CO)C(=O)O,CC(C)O,mol_1791_solute_opt,mol_1791_solvent_opt,50,35,288.15,-1.0000102501087342,Dimethylolpropionic acid,isopropanol
1792.0,O=c1cc(CBr)c2ccccc2[nH]1,CC(C)O,mol_1792_solute_opt,mol_1792_solvent_opt,50,39,278.15,-2.694567068091364,4-(bromomethyl)-2(1H)-quinolinone,isopropanol
1793.0,O=C1CCc2cc(O)ccc2N1,CC(C)O,mol_1793_solute_opt,mol_1793_solvent_opt,50,42,278.15,-1.6068575354726695,"6-hydroxy-3,4-dihydro-2(1H)-quinolone",isopropanol
1794.0,O=c1cc(CO)occ1O,CC(C)O,mol_1794_solute_opt,mol_1794_solvent_opt,50,37,278.15,-1.5471710365531672,Kojic acid,isopropanol
1795.0,CNC(=O)c1cc(Oc2ccc(NC(=O)Nc3ccc(Cl)c(C(F)(F)F)c3)c(F)c2)ccn1,CC(C)O,mol_1795_solute_opt,mol_1795_solvent_opt,50,23,278.15,-2.0586258790080083,Regorafenib,isopropanol
1796.0,CC(=O)c1c(C)c([N+](=O)[O-])c(C(C)(C)C)c([N+](=O)[O-])c1C,CC(C)O,mol_1796_solute_opt,mol_1796_solvent_opt,50,35,278.15,-1.6703040344545423,Musk ketone,isopropanol
1797.0,O=c1[nH]c2cc(Cl)ccc2o1,CC(C)O,mol_1797_solute_opt,mol_1797_solvent_opt,50,43,278.15,-0.6985495429370733,Chlorzoxazone,isopropanol
1798.0,CC(C)OC(=O)[C@H](C)N[P@](=O)(Oc1ccccc1)Oc1c(F)c(F)c(F)c(F)c1F,CC(C)O,mol_1798_solute_opt,mol_1798_solvent_opt,50,29,278.15,-1.804819482895492,SOV-I2,isopropanol
1799.0,O=[N+]([O-])c1cc([N+](=O)[O-])c(Cl)c([N+](=O)[O-])c1Cl,CC(C)O,mol_1799_solute_opt,mol_1799_solvent_opt,50,35,298.15,-2.034220574313547,"1,3-dichloro-2,4,6-trinitrobenzene",isopropanol
1800.0,CCOC(=O)OC1=C(c2cc(C)ccc2C)C(=O)NC12CCC(OC)CC2,CC(C)O,mol_1800_solute_opt,mol_1800_solvent_opt,50,28,278.15,-1.6284720471623952,Spirotetramat,isopropanol
1801.0,CC(=O)Oc1ccccc1C(=O)Nc1ncc([N+](=O)[O-])s1,CC(C)O,mol_1801_solute_opt,mol_1801_solvent_opt,50,33,278.15,-2.56421019100272,Nitazoxanide,isopropanol
1802.0,O=C(O)COc1ccc2ccccc2c1,CC(C)O,mol_1802_solute_opt,mol_1802_solvent_opt,50,39,278.15,-1.0028382886645748,2-naphthoxyacetic acid,isopropanol
1803.0,O=c1c2ccccc2sc2ccccc12,CC(C)O,mol_1803_solute_opt,mol_1803_solvent_opt,50,34,292.15,-2.285963681846708,9H-thioxanthen-9-one,isopropanol
1804.0,Nc1cc(C(=O)O)ccc1C(=O)O,CC(C)O,mol_1804_solute_opt,mol_1804_solvent_opt,50,40,303.15,-0.5538508157589241,2-aminoterephthalic acid,isopropanol
1805.0,CC(=O)N1CCN(c2ccc(O)cc2)CC1,CC(C)O,mol_1805_solute_opt,mol_1805_solvent_opt,50,34,283.15,-1.7570500934739024,1-[4-(4-hydroxyphenyl)piperazin-1-yl]ethenone,isopropanol
1806.0,O=C(Nc1ccc(F)cc1F)c1cccnc1Oc1cccc(C(F)(F)F)c1,CC(C)O,mol_1806_solute_opt,mol_1806_solvent_opt,50,30,278.15,-3.2326102367649927,Diflufenican,isopropanol
1807.0,COc1ccc(Cl)cc1C(=O)NCCc1ccc(S(=O)(=O)NC(=O)NC2CCCCC2)cc1,CC(C)O,mol_1807_solute_opt,mol_1807_solvent_opt,50,38,288.15,-2.854260726318708,Glyburide,isopropanol
1808.0,CC(=O)c1c(C)cc(C(C)(C)C)cc1C,CC(C)O,mol_1808_solute_opt,mol_1808_solvent_opt,50,30,273.15,0.0223253746012574,"1-(4-tert-butyl-2,6-dimethylphenyl)ethenone",isopropanol
1809.0,CONC(=O)Nc1ccc(-c2sc3c(c2CN(C)C)c(=O)n(-c2ccc(OC)nn2)c(=O)n3Cc2c(F)cccc2F)cc1,CC(C)O,mol_1809_solute_opt,mol_1809_solvent_opt,50,30,298.15,-3.066581896903071,Relugolix,isopropanol
1810.0,CC(=O)Oc1ccc(C(c2ccc(OC(C)=O)cc2)c2ccccn2)cc1,CC(C)O,mol_1810_solute_opt,mol_1810_solvent_opt,50,34,278.15,-2.821814367471099,Bisacodyl,isopropanol
1811.0,COc1cc(/C=C/C(=O)O)cc(OC)c1OC,CC(C)O,mol_1811_solute_opt,mol_1811_solvent_opt,50,34,278.15,-1.2068119158974608,"3,4,5-trimethoxycinnamic acid",isopropanol
1812.0,O=C1CCC(=O)CC1,CC(C)O,mol_1812_solute_opt,mol_1812_solvent_opt,50,40,278.15,-0.6133156564985074,"1,4-cyclohexanedione",isopropanol
1813.0,CC(C)[C@@H](C)[C@@H](O)[C@H](O)[C@@H](C)[C@H]1CC[C@H]2[C@@H]3COC(=O)[C@H]4C[C@H](O)[C@H](O)C[C@]4(C)[C@H]3CC[C@]12C,CC(C)O,mol_1813_solute_opt,mol_1813_solvent_opt,50,27,283.15,-1.744918018617949,"2,4-epibrassinolide",isopropanol
1814.0,O=C(O)c1cccnc1,CC(C)O,mol_1814_solute_opt,mol_1814_solvent_opt,50,41,283.15,-1.6301134170689724,Nicotinic acid,isopropanol
1815.0,CCCCOC(=O)c1ccc(O)cc1,CC(C)O,mol_1815_solute_opt,mol_1815_solvent_opt,50,31,288.15,0.7357802547122363,Butyl paraben,isopropanol
1816.0,CCCOC(=O)c1ccc(O)cc1,CC(C)O,mol_1816_solute_opt,mol_1816_solvent_opt,50,40,288.15,0.4730351339424068,Propylparaben,isopropanol
1817.0,CCOC(=O)c1ccc(O)cc1,CC(C)O,mol_1817_solute_opt,mol_1817_solvent_opt,50,32,288.15,0.3878383304723856,Ethylparaben,isopropanol
1818.0,COC(=O)c1ccc(O)cc1,CC(C)O,mol_1818_solute_opt,mol_1818_solvent_opt,50,36,288.15,0.3321818775489262,Methyl paraben,isopropanol
1819.0,CC1(C)[C@@H](O)CC[C@]2(C)[C@H]3C(=O)C=C4[C@@H]5C[C@@](C)(C(=O)O)CC[C@]5(C)CC[C@@]4(C)[C@]3(C)CC[C@@H]12,CC(C)O,mol_1819_solute_opt,mol_1819_solvent_opt,50,20,278.15,-0.9130799740058342,18β-glycyrrhetinic acid,isopropanol
1820.0,Nc1cncc(Cl)n1,CC(C)O,mol_1820_solute_opt,mol_1820_solvent_opt,50,44,278.15,-1.2502587569192103,2-amino-6-chloropyrazine,isopropanol
1821.0,CCCSc1ccc2nc(NC(=O)OC)[nH]c2c1,CC(C)O,mol_1821_solute_opt,mol_1821_solvent_opt,50,32,278.15,-2.8515347194863083,Albendazole,isopropanol
1822.0,O=S(=O)(c1ccccc1)c1ccc(Cl)cc1,CC(C)O,mol_1822_solute_opt,mol_1822_solvent_opt,50,28,278.15,-1.5798307186805256,Sulfenone,isopropanol
1823.0,CCOc1cccc(C=O)c1O,CC(C)O,mol_1823_solute_opt,mol_1823_solvent_opt,50,42,278.15,-0.894607548400582,3-ethoxysalicylaldehyde,isopropanol
1824.0,CN(C)NC(=O)CCC(=O)O,CC(C)O,mol_1824_solute_opt,mol_1824_solvent_opt,50,36,283.15,-2.365496862616564,Daminozide,isopropanol
1825.0,COc1ccc2cccc(CCNC(C)=O)c2c1,CC(C)O,mol_1825_solute_opt,mol_1825_solvent_opt,50,35,278.15,-1.1762035736839282,Agomelatine,isopropanol
1826.0,Clc1cccnc1Cl,CC(C)O,mol_1826_solute_opt,mol_1826_solvent_opt,50,43,278.15,-0.357061870442708,"2,3-dichloropyridine",isopropanol
1827.0,Nc1nc(N)c2nc(-c3ccccc3)c(N)nc2n1,CC(C)O,mol_1827_solute_opt,mol_1827_solvent_opt,50,37,283.15,-4.573288874542822,Triamterene,isopropanol
1828.0,CC(=O)C1C(=O)C=C(C)OC1=O,CC(C)O,mol_1828_solute_opt,mol_1828_solvent_opt,50,42,288.05,-1.2279725617083297,Dehydroacetic acid,isopropanol
1829.0,CCC(C)n1ncn(-c2ccc(N3CCN(c4ccc(OCC5COC(Cn6cncn6)(c6ccc(Cl)cc6Cl)O5)cc4)CC3)cc2)c1=O,CC(C)O,mol_1829_solute_opt,mol_1829_solvent_opt,50,31,283.15,-3.959617421882856,Itraconazole,isopropanol
1830.0,O=C(O)/C=C/c1ccc(Cl)cc1,CC(C)O,mol_1830_solute_opt,mol_1830_solvent_opt,50,45,283.15,-1.8068299253978808,trans-4-chlorocinnamic acid,isopropanol
1831.0,CCOc1ccc2ccccc2c1C(=O)O,CC(C)O,mol_1831_solute_opt,mol_1831_solvent_opt,50,34,278.15,-0.6988467011942807,2-ethoxy-1-naphthoic acid,isopropanol
1832.0,OCC1(O)OC[C@@H](O)[C@H](O)[C@@H]1O,CC(C)O,mol_1832_solute_opt,mol_1832_solvent_opt,50,39,283.15,-2.29890740588422,D-tagatose,isopropanol
1833.0,NC(N)=O,CC(C)O,mol_1833_solute_opt,mol_1833_solvent_opt,50,38,293.15,-0.4694047636289209,Urea,isopropanol
1834.0,Cc1ncc([N+](=O)[O-])n1CCO,CC(C)O,mol_1834_solute_opt,mol_1834_solvent_opt,50,43,293.15,-1.2840157551133728,Metronidazole,isopropanol
1835.0,Cc1cccc(N(C)C(=S)Oc2ccc3ccccc3c2)c1,CC(C)O,mol_1835_solute_opt,mol_1835_solvent_opt,50,35,283.15,-2.316404654889309,Tolnaftate,isopropanol
1836.0,O=C(O)c1cccc([N+](=O)[O-])c1,CC(C)O,mol_1836_solute_opt,mol_1836_solvent_opt,50,44,298.2,0.4252730966529346,3-nitrobenzoic acid,isopropanol
1837.0,O=C1CCC(=O)O1,CC(C)O,mol_1837_solute_opt,mol_1837_solvent_opt,50,46,278.15,-0.153405121915844,Succinic anhydride,isopropanol
1838.0,COc1cc(C2Oc3cc(C4Oc5cc(O)cc(O)c5C(=O)C4O)ccc3OC2CO)ccc1O,CC(C)O,mol_1838_solute_opt,mol_1838_solvent_opt,50,27,298.15,-1.2329264722571458,Silymarin,isopropanol
1839.0,CN1C(C(=O)Nc2ccccn2)=C(O)c2sc(Cl)cc2S1(=O)=O,CC(C)O,mol_1839_solute_opt,mol_1839_solvent_opt,50,36,298.15,-3.929501987238631,Lornoxicam,isopropanol
1840.0,CCOC(=O)Cc1c(C(=O)OCC)sc(N(CC(=O)OCC)CC(=O)OCC)c1C#N,CC(C)O,mol_1840_solute_opt,mol_1840_solvent_opt,50,29,283.15,-2.492429771730556,Tetraethyl ranelate,isopropanol
1841.0,CN(Cc1ccccc1)CN1C(=O)C(=NNC(=O)c2ccccc2OCc2ccccc2)c2ccccc21,CC(C)O,mol_1841_solute_opt,mol_1841_solvent_opt,50,27,298.15,-2.2689743205618296,N′-(1-(n-(methyl) benzylaminomethyl)-2-oxoindolin-3-ylidene)-2-(benzyloxy) benzohydrazide,isopropanol
1842.0,COc1cc(/C=C/C(=O)O)cc(OC)c1O,CC(C)O,mol_1842_solute_opt,mol_1842_solvent_opt,50,41,298.15,-1.556848859564984,Sinapic acid,isopropanol
1843.0,O=C(O)c1cc(O)c(O)c(O)c1,CC(C)O,mol_1843_solute_opt,mol_1843_solvent_opt,50,38,293.15,-0.4244977781961226,Gallic acid,isopropanol