pair_id,SMILES_Solute,SMILES_Solvent,Solute_name,Solvent_name,Total_conformers,Filtered_conformers,Temperature_K,LogS,Compound_Name,Solvent
1464.0,CC(=O)O[C@H]1CC[C@@]2(C)C(=CC[C@@H]3[C@@H]2CC[C@]2(C)C(c4cccnc4)=CC[C@@H]32)C1,CO,mol_1464_solute_opt,mol_1464_solvent_opt,50,16,296.0,-0.8711730015970192,Abiraterone acetate,methanol
1465.0,C[C@]12CC[C@H](O)CC1=CC[C@@H]1[C@@H]2CC[C@]2(C)C(c3cccnc3)=CC[C@@H]12,CO,mol_1465_solute_opt,mol_1465_solvent_opt,50,12,296.0,-1.8906517032223893,Abiraterone,methanol
1466.0,O=C(O)c1cc2ccccc2cc1O,CO,mol_1466_solute_opt,mol_1466_solvent_opt,50,33,293.15,-0.4858852162205322,3-hydroxy-2-naphthoic acid,methanol
1467.0,CCOC(=O)C1=C[C@]2(CC)CCCN3CCc4c(n1c1ccccc41)[C@@H]32,CO,mol_1467_solute_opt,mol_1467_solvent_opt,50,12,283.15,-2.0244281483501303,Vinpocetine,methanol
1468.0,COc1cc(N)nc(OC)n1,CO,mol_1468_solute_opt,mol_1468_solvent_opt,50,24,283.15,-0.3373064941298651,"4-amino-2,6-dimethoxypyrimidine",methanol
1469.0,CC[C@@H](C(N)=O)N1CCCC1=O,CO,mol_1469_solute_opt,mol_1469_solvent_opt,50,23,283.15,0.3451852983083643,Levetiracetam,methanol
1470.0,NNC(=O)c1ccncc1,CO,mol_1470_solute_opt,mol_1470_solvent_opt,50,33,283.15,-0.8409407983570125,Isoniazid,methanol
1471.0,N#CCc1ccc([N+](=O)[O-])cc1,CO,mol_1471_solute_opt,mol_1471_solvent_opt,50,38,278.15,-1.2245819919296357,p-nitrophenylacetonitrile,methanol
1472.0,CCCN(CCC)S(=O)(=O)c1ccc(C(=O)O)cc1,CO,mol_1472_solute_opt,mol_1472_solvent_opt,50,17,283.15,-1.0379511787407971,Probenecid,methanol
1473.0,Cc1nc(C)c(C)nc1C,CO,mol_1473_solute_opt,mol_1473_solvent_opt,50,26,273.15,0.4973925082857674,Tetramethylpyrazine,methanol
1474.0,COc1c(N2CCNC(C)C2)c(F)cc2c(=O)c(C(=O)O)cn(C3CC3)c12,CO,mol_1474_solute_opt,mol_1474_solvent_opt,50,15,273.15,-2.318429368825597,Gatifloxacin,methanol
1475.0,Nc1cc([N+](=O)[O-])ccc1Cl,CO,mol_1475_solute_opt,mol_1475_solvent_opt,50,40,273.15,-0.7429126555465871,2-chloro-5-nitroaniline,methanol
1476.0,CC(C)(C)NSc1nc2ccccc2s1,CO,mol_1476_solute_opt,mol_1476_solvent_opt,50,23,273.2,-0.8231290836206082,N-tert-butylbenzothiazole-2-sulfenamide,methanol
1477.0,C[C@H]1[C@H](OC(=O)CCC(=O)O)O[C@@H]2O[C@@]3(C)CC[C@H]4[C@H](C)CC[C@@H]1[C@@]24OO3,CO,mol_1477_solute_opt,mol_1477_solvent_opt,50,12,278.15,-0.9012014186804544,Artesunate,methanol
1478.0,O=C(O)c1ccc(-n2nc(-c3ccccc3O)nc2-c2ccccc2O)cc1,CO,mol_1478_solute_opt,mol_1478_solvent_opt,50,15,298.2,-0.5291216161844765,Deferasirox,methanol
1479.0,Nc1nc(Cl)c2[nH]cnc2n1,CO,mol_1479_solute_opt,mol_1479_solvent_opt,50,34,278.15,-3.110400119167421,2-amino-6-chloropurine,methanol
1480.0,C[C@@H](O)[C@H]1C(=O)N2C(C(=O)[O-])=C(SC3Cn4cnc[n+]4C3)[C@H](C)[C@H]12,CO,mol_1480_solute_opt,mol_1480_solvent_opt,50,17,283.15,-3.332207868451545,Biapenem,methanol
1481.0,CC#C[C@]1(O)CC[C@H]2[C@@H]3CCC4=CC(=O)CCC4=C3[C@@H](c3ccc(N(C)C)cc3)C[C@@]21C,CO,mol_1481_solute_opt,mol_1481_solvent_opt,50,13,273.15,-1.9487121785312744,Mifepristone,methanol
1482.0,Nc1nc2c(ncn2COC(CO)CO)c(=O)[nH]1,CO,mol_1482_solute_opt,mol_1482_solvent_opt,50,29,278.15,-2.7343774685811577,Ganciclovir,methanol
1483.0,CC(C)N1C(=O)N(c2ccccc2)CSC1=NC(C)(C)C,CO,mol_1483_solute_opt,mol_1483_solvent_opt,50,18,273.15,-1.0191681409585136,Buprofezin,methanol
1484.0,COC(=O)Nc1nc2ccc(C(=O)c3ccc(F)cc3)cc2[nH]1,CO,mol_1484_solute_opt,mol_1484_solvent_opt,50,20,283.15,-4.752211264920073,Flubendazole,methanol
1485.0,NC(=O)c1ccc(N)cc1,CO,mol_1485_solute_opt,mol_1485_solvent_opt,50,27,283.15,-0.5147198950159915,4-aminobenzamide,methanol
1486.0,CCOC(=O)[C@@H](C)Oc1ccc(Oc2cnc3cc(Cl)ccc3n2)cc1,CO,mol_1486_solute_opt,mol_1486_solvent_opt,50,22,273.15,-2.173413009975204,Quizalofop-p-ethyl,methanol
1487.0,O=C(O)[C@H]1O[C@@H](Oc2cc3oc(-c4ccccc4)cc(=O)c3c(O)c2O)[C@H](O)[C@@H](O)[C@@H]1O,CO,mol_1487_solute_opt,mol_1487_solvent_opt,50,19,278.15,-2.690646270042427,Baicalin,methanol
1488.0,Nc1cccc2c(N)cccc12,CO,mol_1488_solute_opt,mol_1488_solvent_opt,50,30,273.15,-1.5483378771688097,"1,5-Naphthalenediamine",methanol
1489.0,Nc1cccc2cccc(N)c12,CO,mol_1489_solute_opt,mol_1489_solvent_opt,50,21,273.15,-0.3353346406333362,"1,8-Naphthalenediamine",methanol
1490.0,Cc1cccc(C(=O)O)c1N,CO,mol_1490_solute_opt,mol_1490_solvent_opt,50,33,278.15,-0.2906707487764078,2-amino-3-methylbenzoic acid,methanol
1491.0,N#Cc1cccc([N+](=O)[O-])c1C#N,CO,mol_1491_solute_opt,mol_1491_solvent_opt,50,35,278.15,-1.2918598492694848,3-nitrophthalonitrile,methanol
1492.0,O=Cc1ccc(C(=O)O)cc1,CO,mol_1492_solute_opt,mol_1492_solvent_opt,50,34,283.15,-0.7063726260440713,Terephthalaldehydic acid,methanol
1493.0,O=C(O)Cc1c[nH]c2ccccc12,CO,mol_1493_solute_opt,mol_1493_solvent_opt,50,30,278.15,-3.6477884646914376,Indole-3-acetic acid,methanol
1494.0,CP(=O)(O)CC[C@H](N)C(=O)O,CO,mol_1494_solute_opt,mol_1494_solvent_opt,50,25,278.15,-2.3692866857126003,L‑Phosphinothricin ,methanol
1495.0,CN(C)/C=C/C(=O)c1cccnc1,CO,mol_1495_solute_opt,mol_1495_solvent_opt,50,24,278.15,-0.1825757114767241,(2E)-1-(3-pyridyl)-3-(dimethylamino)-2-propen-1-one,methanol
1496.0,c1ccc(-c2ccc(C(c3ccccc3)n3ccnc3)cc2)cc1,CO,mol_1496_solute_opt,mol_1496_solvent_opt,50,21,278.15,-1.2401202807483194,Bifonazole,methanol
1497.0,Sc1nc2ccccc2[nH]1,CO,mol_1497_solute_opt,mol_1497_solvent_opt,50,32,278.15,-0.8012065677495159,2-mercaptobenzimidazole,methanol
1498.0,NS(=O)(=O)c1cc2c(cc1Cl)NCNS2(=O)=O,CO,mol_1498_solute_opt,mol_1498_solvent_opt,50,35,283.05,-1.0477295267231317,Hydrochlorothiazide,methanol
1499.0,N#CCc1ccccc1[N+](=O)[O-],CO,mol_1499_solute_opt,mol_1499_solvent_opt,50,33,278.15,-0.7902950264363522,o-nitrophenylacetonitrile,methanol
1500.0,CC(=NC#N)N(C)Cc1ccc(Cl)nc1,CO,mol_1500_solute_opt,mol_1500_solvent_opt,50,32,278.15,-0.2926723147208301,Acetamiprid,methanol
1501.0,O=C1Cc2ccccc2N1,CO,mol_1501_solute_opt,mol_1501_solvent_opt,50,37,291.95,-0.9607488773637034,2-oxindole,methanol
1502.0,N[C@H](CC(=O)O)C(=O)O,CO,mol_1502_solute_opt,mol_1502_solvent_opt,50,32,288.15,-2.009087863495068,D-aspartic acid,methanol
1503.0,NC(=O)c1ccccc1N,CO,mol_1503_solute_opt,mol_1503_solvent_opt,50,29,273.15,0.1239809054771747,2-aminobenzamide,methanol
1504.0,N#CC(c1ccc(Cl)cc1)c1c(Cl)cc(-n2ncc(=O)[nH]c2=O)cc1Cl,CO,mol_1504_solute_opt,mol_1504_solvent_opt,50,23,283.15,-1.234807758320562,Diclazuril,methanol
1505.0,NS(=O)(=O)c1ccccc1,CO,mol_1505_solute_opt,mol_1505_solvent_opt,50,29,273.15,-0.114439017316215,Benzenesulfonamide,methanol
1506.0,O=P(O)(O)c1ccccc1,CO,mol_1506_solute_opt,mol_1506_solvent_opt,50,30,273.15,1.0142537508649536,Phenylphosphonic acid,methanol
1507.0,Fc1c(I)c(F)c(I)c(F)c1I,CO,mol_1507_solute_opt,mol_1507_solvent_opt,50,33,290.15,-3.2567103454291257,"1,3,5-trifluoro-2,4,6-triiodobenzene",methanol
1508.0,Nc1nnn[nH]1,CO,mol_1508_solute_opt,mol_1508_solvent_opt,50,40,283.15,-1.8132865252833608,5-aminotetrazole,methanol
1509.0,CC(C)=CCC[C@@H](C)[C@H]1CC[C@@]2(C)C3=C(CC[C@]12C)[C@@]1(C)CC[C@H](O)C(C)(C)[C@@H]1CC3,CO,mol_1509_solute_opt,mol_1509_solvent_opt,50,12,277.78,-3.122486395981245,Lanosterol,methanol
1510.0,Cc1cnc(C(=O)O)cn1,CO,mol_1510_solute_opt,mol_1510_solvent_opt,50,32,273.15,-3.6678428763369184,5-methyl-2-pyrazinecarboxylic acid,methanol
1511.0,O=C(O[C@@H]1Cc2c(O)cc(O)cc2O[C@@H]1c1cc(O)c(O)c(O)c1)c1cc(O)c(O)c(O)c1,CO,mol_1511_solute_opt,mol_1511_solvent_opt,50,18,278.15,-4.28805469206871,(−)-epigallocatechin gallate,methanol
1512.0,c1cc(-n2c3ccccc3c3ccccc32)cc(-n2c3ccccc3c3ccccc32)c1,CO,mol_1512_solute_opt,mol_1512_solvent_opt,50,12,283.15,-2.962923389408556,"1,3-bis(9-carbazolyl)benzene",methanol
1513.0,N=C(N)NC(N)=S,CO,mol_1513_solute_opt,mol_1513_solvent_opt,50,33,283.15,-0.8530515081352544,Amidinothiourea,methanol
1514.0,N[C@@H](CO)C(=O)O,CO,mol_1514_solute_opt,mol_1514_solvent_opt,50,32,278.15,-3.0557261985059108,L-serine,methanol
1515.0,CN1CCN(c2c(F)cc3c(=O)c(C(=O)O)cn4c3c2OCN4C)CC1,CO,mol_1515_solute_opt,mol_1515_solvent_opt,50,24,283.15,-2.499254488751693,Marbofloxacin,methanol
1516.0,O=C1C=CC(=O)N1c1ccccc1Br,CO,mol_1516_solute_opt,mol_1516_solvent_opt,50,29,278.15,-0.4681617037814933,"1-(2-bromo-phenyl)-pyrrole-2,5-dione",methanol
1517.0,N[C@@H](Cc1c[nH]c2ccccc12)C(=O)O,CO,mol_1517_solute_opt,mol_1517_solvent_opt,50,29,278.15,-1.8071484078461133,L-tryptophan,methanol
1518.0,O=[N+]([O-])c1ncccc1O,CO,mol_1518_solute_opt,mol_1518_solvent_opt,50,36,278.15,0.0145191664747274,3-hydroxy-2-nitropyridine,methanol
1519.0,Cc1nc(N)nc(N)n1,CO,mol_1519_solute_opt,mol_1519_solvent_opt,50,30,283.15,-2.4006895329335105,Acetoguanamine,methanol
1520.0,COC(=O)c1ccc(C(=O)OC)cc1,CO,mol_1520_solute_opt,mol_1520_solvent_opt,50,26,283.15,-1.7082158628278528,Dimethyl terephthalate,methanol
1521.0,N[C@H](Cc1c[nH]cn1)C(=O)O,CO,mol_1521_solute_opt,mol_1521_solvent_opt,50,29,293.15,-2.3293879178056525,D-histidine,methanol
1522.0,O=C(O)c1cccnc1Cl,CO,mol_1522_solute_opt,mol_1522_solvent_opt,50,39,273.15,-1.2398693268568433,2-chloronicotinic acid,methanol
1523.0,CN(C)[C@@H]1C(=O)C(C(N)=O)=C(O)[C@@]2(O)C(=O)C3=C(O)c4c(O)cccc4C[C@H]3C[C@@H]12,CO,mol_1523_solute_opt,mol_1523_solvent_opt,50,21,278.15,-2.3791062382392787,Sancycline,methanol
1524.0,C[C@]12CCC3=C4CCC(=O)C=C4CC[C@H]3[C@@H]1CC[C@@]2(O)CC#N,CO,mol_1524_solute_opt,mol_1524_solvent_opt,50,24,273.15,-1.336402969475419,Dienogest,methanol
1525.0,O=C(O)CCC(=O)O,CO,mol_1525_solute_opt,mol_1525_solvent_opt,50,36,293.15,0.0716967698293491,Succinic acid,methanol
1526.0,O=C(O)CCCC(=O)O,CO,mol_1526_solute_opt,mol_1526_solvent_opt,50,34,287.05,0.8038071311724264,Glutaric acid,methanol
1527.0,O=C(O)CCCCC(=O)O,CO,mol_1527_solute_opt,mol_1527_solvent_opt,50,23,287.95,-0.0570170185128272,Adipic acid,methanol
1528.0,C[C@H](N)C(=O)O,CO,mol_1528_solute_opt,mol_1528_solvent_opt,50,33,283.15,-1.992657611270012,L-alanine,methanol
1529.0,Nc1c(Cl)cc([N+](=O)[O-])cc1Cl,CO,mol_1529_solute_opt,mol_1529_solvent_opt,50,32,278.15,-1.7510675286691066,"2,6-dichloro-4-nitroaniline",methanol
1530.0,O=C(O)[C@@H]1CCCN1,CO,mol_1530_solute_opt,mol_1530_solvent_opt,50,23,283.15,0.0892751119733954,L-proline,methanol
1531.0,Oc1ccc(OCc2ccccc2)cc1,CO,mol_1531_solute_opt,mol_1531_solvent_opt,50,25,283.15,-0.0051080145974977,Monobenzone,methanol
1532.0,COC(=O)C(C)(C)N=NC(C)(C)C(=O)OC,CO,mol_1532_solute_opt,mol_1532_solvent_opt,50,23,252.95,-0.4286374783672536,"2,2′-azobis(2-methylpropionate)",methanol
1533.0,NC(N)=NC(N)=NCCc1ccccc1,CO,mol_1533_solute_opt,mol_1533_solvent_opt,50,18,278.15,-1.2238469545774555,Phenformin,methanol
1534.0,CN(C)Cc1c[nH]c2ccccc12,CO,mol_1534_solute_opt,mol_1534_solvent_opt,50,27,273.15,-0.1477752455001053,Gramine,methanol
1535.0,Nc1ccc(Cl)cc1[N+](=O)[O-],CO,mol_1535_solute_opt,mol_1535_solvent_opt,50,39,278.15,-0.3956343087657122,4-chloro-2-nitroaniline,methanol
1536.0,COc1cc([N+](=O)[O-])ccc1N,CO,mol_1536_solute_opt,mol_1536_solvent_opt,50,32,278.15,-1.2220147598625322,2-methoxy-4-nitroaniline,methanol
1537.0,O=Cc1ccc(O)c(Br)c1,CO,mol_1537_solute_opt,mol_1537_solvent_opt,50,37,278.15,-0.8426798020785539,3-bromo-4-hydroxybenzaldehyde,methanol
1538.0,Cc1c(Br)cccc1C(=O)O,CO,mol_1538_solute_opt,mol_1538_solvent_opt,50,38,278.15,-0.2786276595524901,3-bromo-2-methylbenzoic acid,methanol
1539.0,CC1(C)NC(=O)NC1=O,CO,mol_1539_solute_opt,mol_1539_solvent_opt,50,31,283.15,0.2376680467705666,"5,5-dimethylhydantoin",methanol
1540.0,ON(Cc1ccccc1)Cc1ccccc1,CO,mol_1540_solute_opt,mol_1540_solvent_opt,50,22,273.15,-1.496002416074298,"N,N-dibenzylhydroxylamine",methanol
1541.0,CS(=O)(=O)c1ccc(C(=O)C2C(=O)CCCC2=O)c([N+](=O)[O-])c1,CO,mol_1541_solute_opt,mol_1541_solvent_opt,50,19,283.15,-1.055098258685803,Mesotrione,methanol
1542.0,CC(=O)N[C@@H](CC(C)C)C(=O)O,CO,mol_1542_solute_opt,mol_1542_solvent_opt,50,25,283.15,-0.0988389284747912,N-acetyl-L-leucine,methanol
1543.0,O=c1[nH]c2ccccc2c(=O)o1,CO,mol_1543_solute_opt,mol_1543_solvent_opt,50,34,288.15,-1.4299757974763434,Isatoic anhydride,methanol
1544.0,Oc1c(Br)cc(Br)c2cccnc12,CO,mol_1544_solute_opt,mol_1544_solvent_opt,50,31,288.15,-2.9372224553497714,"5,7-dibromo-8-hydroxyquinoline",methanol
1545.0,CC(=O)NC1(C)CCC2CC1C(C)=NC2(C)C,CO,mol_1545_solute_opt,mol_1545_solvent_opt,50,18,298.15,-0.6303738215257234,"8-acetamide-2,4,4,8-tetramethyl-3-azabicyclo[3.3.1]non-2-ene perchlorate",methanol
1546.0,N[C@@H](C(=O)O)c1ccc(O)cc1,CO,mol_1546_solute_opt,mol_1546_solvent_opt,50,30,278.17,-1.9764913760217384,D-(p-hydroxy)phenylglycine,methanol
1547.0,O=C1CCC(c2ccc(Cl)c(Cl)c2)c2ccccc21,CO,mol_1547_solute_opt,mol_1547_solvent_opt,50,23,277.93,-1.6599998378035234,"4-(3,4-dichlorophenyl)-1-tetralone",methanol
1548.0,CN/C(=C\[N+](=O)[O-])NCCSCc1csc(CN(C)C)n1,CO,mol_1548_solute_opt,mol_1548_solvent_opt,50,22,273.15,-0.3685593778472001,Nizatidine,methanol
1549.0,C[C@@H]1CC[C@H]2[C@@H](C)C(=O)O[C@@H]3O[C@@]4(C)CC[C@@H]1[C@]32OO4,CO,mol_1549_solute_opt,mol_1549_solvent_opt,50,20,284.15,-1.854507874160424,Artemisinin,methanol
1550.0,CCN1CCCC1CNC(=O)c1cc(S(N)(=O)=O)ccc1OC,CO,mol_1550_solute_opt,mol_1550_solvent_opt,50,23,278.18,-1.6672838517903303,Sulpiride,methanol
1551.0,C[C@@]12C[C@H]3OC(=O)[C@@H]1CO[C@]14O[C@@]5([C@H]2C1=O)[C@@]3(C)OC(=O)[C@@]5(O)CC[C@H]1[C@H]4C[C@@H](O)[C@@]2(O)CC=CC(=O)[C@]12C,CO,mol_1551_solute_opt,mol_1551_solvent_opt,50,18,283.2,-0.6903769198015851,Physalin D,methanol
1552.0,COc1ccc(P(=O)(c2ccc(OC)cc2)c2ccc(OC)cc2)cc1,CO,mol_1552_solute_opt,mol_1552_solvent_opt,50,17,293.35,-2.3287997188569607,Tri(p-methoxyphenyl)phosphine oxide,methanol
1553.0,COc1ccc(P(c2ccc(OC)cc2)c2ccc(OC)cc2)cc1,CO,mol_1553_solute_opt,mol_1553_solvent_opt,50,15,293.16,-2.265018901883198,Tri(p-methoxyphenyl)phosphine,methanol
1554.0,O=P1(Oc2ccccc2)OCC2(CO1)COP(=O)(Oc1ccccc1)OC2,CO,mol_1554_solute_opt,mol_1554_solvent_opt,50,18,293.24,-1.173430868962151,"3,9-diphenoxy-2,4,8,10-tetraoxa-3,9-diphosphaspiro-[5.5]-undecane-3,9-dioxide",methanol
1555.0,N[C@@H](Cc1ccc([N+](=O)[O-])cc1[N+](=O)[O-])C(=O)O,CO,mol_1555_solute_opt,mol_1555_solvent_opt,50,34,273.15,-3.422037191789886,"2,4-dinitro-L-phenylalanine",methanol
1556.0,CO[C@H]1C[C@@H]2CC[C@@H](C)[C@@](O)(O2)C(=O)C(=O)N2CCCC[C@H]2C(=O)O[C@H]([C@H](C)C[C@@H]2CC[C@@H](O)[C@H](OC)C2)CC(=O)[C@H](C)/C=C(\C)[C@@H](O)[C@@H](OC)C(=O)[C@H](C)C[C@H](C)/C=C/C=C/C=C/1C,CO,mol_1556_solute_opt,mol_1556_solvent_opt,50,10,295.0,-1.7508486673623345,Sirolimus,methanol
1557.0,CCCCOC(=O)c1ccc(O)cc1,CO,mol_1557_solute_opt,mol_1557_solvent_opt,50,23,281.05,1.643824009022692,Butyl paraben,methanol
1558.0,CS(=O)(=O)c1ccc([C@@H](O)[C@@H](CF)NC(=O)C(Cl)Cl)cc1,CO,mol_1558_solute_opt,mol_1558_solvent_opt,50,16,278.55,-0.9875778954695018,Florfenicol,methanol
1559.0,COC(=O)/C=C/C(=O)OC,CO,mol_1559_solute_opt,mol_1559_solvent_opt,50,26,297.45,-0.7320827881932667,Dimethyl fumarate,methanol
1560.0,CP(=O)(O)c1ccccc1,CO,mol_1560_solute_opt,mol_1560_solvent_opt,50,24,298.35,1.0567982108895873,Methylphenylphosphinic acid,methanol
1561.0,O=[PH](O)c1ccccc1,CO,mol_1561_solute_opt,mol_1561_solvent_opt,50,30,293.55,0.711585506346906,Phenylphosphinic acid,methanol
1562.0,O=[N+]([O-])c1cc([N+](=O)[O-])c(O)c(Cl)c1O,CO,mol_1562_solute_opt,mol_1562_solvent_opt,50,34,299.75,-1.3746977601834582,"2-chloro-4,6-dinitroresorcinol",methanol
1563.0,O=C(CCc1ccc(O)cc1)c1c(O)cc(O)cc1O,CO,mol_1563_solute_opt,mol_1563_solvent_opt,50,26,288.2,-0.205029496796002,Phloretin,methanol
1564.0,CC(=O)OCC(=O)[C@@]1(O)CC[C@H]2[C@@H]3CCC4=CC(=O)C=C[C@]4(C)[C@H]3C(=O)C[C@@]21C,CO,mol_1564_solute_opt,mol_1564_solvent_opt,50,14,285.45,-1.870922234887723,Prednisone acetate,methanol
1565.0,C[C@H]1[C@H](C)CC[C@]2(C(=O)O[C@@H]3O[C@H](CO[C@@H]4O[C@H](CO)[C@@H](O[C@@H]5O[C@@H](C)[C@H](O)[C@@H](O)[C@H]5O)[C@H](O)[C@H]4O)[C@@H](O)[C@H](O)[C@H]3O)CC[C@]3(C)C(=CC[C@@H]4[C@@]5(C)C[C@@H](O)[C@H](O)[C@@](C)(CO)[C@@H]5CC[C@]43C)[C@H]12,CO,mol_1565_solute_opt,mol_1565_solvent_opt,50,12,278.15,-1.644066445254563,Asiaticoside,methanol
1566.0,N=c1nc(N2CCCCC2)cc(N)n1O,CO,mol_1566_solute_opt,mol_1566_solvent_opt,50,24,278.15,-0.7261710582787753,Minoxidil,methanol
1567.0,CC(=O)O[C@H]1CC[C@@]2(C)C(=CC[C@@H]3[C@@H]2CC[C@]2(C)C(C(C)=O)=CC[C@@H]32)C1,CO,mol_1567_solute_opt,mol_1567_solvent_opt,50,19,282.75,-1.9978705275816515,16-dehydropregnenolone acetate,methanol
1568.0,CO/N=C(\C(=O)O)c1csc(N)n1,CO,mol_1568_solute_opt,mol_1568_solvent_opt,50,25,283.75,-2.135829875973942,(Z)-2-(2-aminothiazol-4-yl)-2-methoxyiminoacetic acid,methanol
1569.0,Clc1cc(Cl)c(OCCBr)c(Cl)c1,CO,mol_1569_solute_opt,mol_1569_solvent_opt,50,29,278.1,-1.0467850851115157,"2-(2,4,6-trichlorophenoxy)ethyl bromide",methanol
1570.0,C=C(C)[C@@H]1CC[C@]2(C(=O)O)CC[C@]3(C)[C@H](CC[C@@H]4[C@@]5(C)CC[C@H](O)C(C)(C)[C@@H]5CC[C@]43C)[C@@H]12,CO,mol_1570_solute_opt,mol_1570_solvent_opt,50,15,278.2,-2.3209988335864185,Betulinic acid,methanol
1571.0,C[N+](C)(C)CC(=O)[O-],CO,mol_1571_solute_opt,mol_1571_solvent_opt,50,31,283.15,0.5202165639237367,Betaine,methanol
1572.0,Nc1ccc(Cl)nn1,CO,mol_1572_solute_opt,mol_1572_solvent_opt,50,42,298.15,-1.0200669035947294,6-chloropyridazin-3-amine,methanol
1573.0,COc1cccc(Nc2ccccc2)c1,CO,mol_1573_solute_opt,mol_1573_solvent_opt,50,27,287.25,-0.4715143353764153,3-methoxy-N-phenylaniline,methanol
1574.0,CSc1cccc(Nc2ccccc2)c1,CO,mol_1574_solute_opt,mol_1574_solvent_opt,50,17,287.65,-0.5389632241649082,3-(methylthio)-N-phenylaniline,methanol
1575.0,Cc1cc(C)c(C(=O)P(=O)(C(=O)c2c(C)cc(C)cc2C)c2ccccc2)c(C)c1,CO,mol_1575_solute_opt,mol_1575_solvent_opt,50,12,295.4,-1.2366125989247296,"Bis(2,4,6-trimethylbenzoyl)phenylphosphine oxide",methanol
1576.0,C=C1CC[C@H](O)C/C1=C/C=C1\CCC[C@]2(C)[C@@H]([C@H](C)CCCC(C)C)CC[C@@H]12,CO,mol_1576_solute_opt,mol_1576_solvent_opt,50,11,248.2,-1.2732068723419827,Vitamin D3,methanol
1577.0,Nc1cccnn1,CO,mol_1577_solute_opt,mol_1577_solvent_opt,50,36,288.15,-0.0372772089988088,Pyridazin-3-amine,methanol
1578.0,Cc1nc(-c2ccc(OCC(C)C)c(C#N)c2)sc1C(=O)O,CO,mol_1578_solute_opt,mol_1578_solvent_opt,50,28,293.15,-1.8880616572242943,Febuxostat,methanol
1579.0,C[C@@H]1OC(=O)[C@H](C)OC1=O,CO,mol_1579_solute_opt,mol_1579_solvent_opt,50,35,278.25,-0.4096275203712152,L-lactide,methanol
1580.0,O=P(CCCO)(CCCO)CCCO,CO,mol_1580_solute_opt,mol_1580_solvent_opt,50,27,298.11,0.1349459994903865,Tris(3-hydroxypropyl)phosphine oxide,methanol
1581.0,CC(=O)N1CN(C(C)=O)CN(C(C)=O)C1,CO,mol_1581_solute_opt,mol_1581_solvent_opt,50,27,298.0,0.7995405985317888,"1,3,5-Triacetyl-hexahydro-s-triazine",methanol
1582.0,O=[N+]([O-])N1CN([N+](=O)[O-])CN([N+](=O)[O-])CN([N+](=O)[O-])C1,CO,mol_1582_solute_opt,mol_1582_solvent_opt,50,31,298.0,-0.691069684761631,Cyclotetramethylenetetranitramine (HMX),methanol
1583.0,Clc1ccc(SSc2ccc(Cl)cc2)cc1,CO,mol_1583_solute_opt,mol_1583_solvent_opt,50,34,303.15,-2.4665295550911432,"4,4′-dichlorodiphenyl disulfide",methanol
1584.0,O=C(O)[C@@H]1Cc2ccccc2N1,CO,mol_1584_solute_opt,mol_1584_solvent_opt,50,31,283.15,-0.961545172100644,(S)-indoline-2-carboxylic acid,methanol
1585.0,CC1=C(C(=O)O)N2C(=O)[C@@H](NC(=O)[C@H](N)C3=CCC=CC3)[C@H]2SC1,CO,mol_1585_solute_opt,mol_1585_solvent_opt,50,19,283.15,-1.8425111784907888,Cefradine,methanol
1586.0,O=C1OC(=O)c2ccc(Br)c3cccc1c23,CO,mol_1586_solute_opt,mol_1586_solvent_opt,50,38,278.15,-2.935147403004373,"4-bromo-1,8-naphthalic anhydride",methanol
1587.0,CC1(C)COP(=O)(C(C)(C)O)OC1,CO,mol_1587_solute_opt,mol_1587_solvent_opt,50,25,279.05,-0.0108431963067792,"1,3,2-dioxaphosphorinane-2-methanol-α,α-5,5-tetramethyl 2-oxide",methanol
1588.0,O=P(Oc1ccccc1)(Oc1ccccc1)N1CCN(P(=O)(Oc2ccccc2)Oc2ccccc2)CC1,CO,mol_1588_solute_opt,mol_1588_solvent_opt,50,14,293.15,-3.09122604408659,"P,P′-(1,4-piperazinediyl)bis-,P,P,P′,P′-tetraphenyl ester (PAPBE)",methanol
1589.0,O=[N+]([O-])c1ccc(Cl)c(Cl)c1,CO,mol_1589_solute_opt,mol_1589_solvent_opt,50,39,278.15,-0.2719782724882324,"3,4-dichloronitrobenzene",methanol
1590.0,CCNc1nc(Cl)nc(NC(C)C)n1,CO,mol_1590_solute_opt,mol_1590_solvent_opt,50,22,283.15,-1.3859976959225273,Atrazine,methanol
1591.0,O=C(O)c1cc2ccccc2[nH]1,CO,mol_1591_solute_opt,mol_1591_solvent_opt,50,34,278.15,0.2626664384001493,Indole-2-carboxylic acid,methanol
1592.0,O=P12OCC(CO)(CO1)CO2,CO,mol_1592_solute_opt,mol_1592_solvent_opt,50,35,292.75,-0.4365839202710053,"4-(hydroxymethyl)-1-oxido-2,6,7-trioxa-1-phosphabicyclo[2.2.2]octane",methanol