pair_id,SMILES_Solute,SMILES_Solvent,Solute_name,Solvent_name,Total_conformers,Filtered_conformers,Temperature_K,LogS,Compound_Name,Solvent
675.0,COc1cc(N)nc(OC)n1,CCO,mol_675_solute_opt,mol_675_solvent_opt,50,31,283.15,-0.7533281852569585,"4-amino-2,6-dimethoxypyrimidine",ethanol
676.0,CC[C@@H](C(N)=O)N1CCCC1=O,CCO,mol_676_solute_opt,mol_676_solvent_opt,50,30,283.15,-0.1607575612861358,Levetiracetam,ethanol
677.0,O=C(OCC1c2ccccc2-c2ccccc21)ON1C(=O)CCC1=O,CCO,mol_677_solute_opt,mol_677_solvent_opt,50,23,283.15,-2.082533843645224,N-(9-fluorenylmethoxycarbonyloxy)succinimide,ethanol
678.0,NNC(=O)c1ccncc1,CCO,mol_678_solute_opt,mol_678_solvent_opt,50,41,283.15,-1.3347674868766288,Isoniazid,ethanol
679.0,N#CCc1ccc([N+](=O)[O-])cc1,CCO,mol_679_solute_opt,mol_679_solvent_opt,50,41,278.15,-1.4946950937448942,p-nitrophenylacetonitrile,ethanol
680.0,CCCN(CCC)S(=O)(=O)c1ccc(C(=O)O)cc1,CCO,mol_680_solute_opt,mol_680_solvent_opt,50,27,283.15,-1.055615212086597,Probenecid,ethanol
681.0,Cc1nc(C)c(C)nc1C,CCO,mol_681_solute_opt,mol_681_solvent_opt,50,31,273.15,0.0814058345535238,Tetramethylpyrazine,ethanol
682.0,COc1c(N2CCNC(C)C2)c(F)cc2c(=O)c(C(=O)O)cn(C3CC3)c12,CCO,mol_682_solute_opt,mol_682_solvent_opt,50,27,273.15,-2.3397800836633857,Gatifloxacin,ethanol
683.0,Nc1cc([N+](=O)[O-])ccc1Cl,CCO,mol_683_solute_opt,mol_683_solvent_opt,50,39,273.15,-0.7655290014400341,2-chloro-5-nitroaniline,ethanol
684.0,CC(C)(C)NSc1nc2ccccc2s1,CCO,mol_684_solute_opt,mol_684_solvent_opt,50,35,273.2,-0.7742270486856013,N-tert-butylbenzothiazole-2-sulfenamide,ethanol
685.0,O=C(O)c1ccc(-n2nc(-c3ccccc3O)nc2-c2ccccc2O)cc1,CCO,mol_685_solute_opt,mol_685_solvent_opt,50,25,298.2,-0.607934238217307,Deferasirox,ethanol
686.0,Nc1nc(Cl)c2[nH]cnc2n1,CCO,mol_686_solute_opt,mol_686_solvent_opt,50,41,278.15,-3.116803976524644,2-amino-6-chloropurine,ethanol
687.0,C[C@@H](O)[C@H]1C(=O)N2C(C(=O)[O-])=C(SC3Cn4cnc[n+]4C3)[C@H](C)[C@H]12,CCO,mol_687_solute_opt,mol_687_solvent_opt,50,23,283.15,-3.5895983769190614,Biapenem,ethanol
688.0,CC#C[C@]1(O)CC[C@H]2[C@@H]3CCC4=CC(=O)CCC4=C3[C@@H](c3ccc(N(C)C)cc3)C[C@@]21C,CCO,mol_688_solute_opt,mol_688_solvent_opt,50,21,273.15,-2.6701211388224824,Mifepristone,ethanol
689.0,Nc1nc2c(ncn2COC(CO)CO)c(=O)[nH]1,CCO,mol_689_solute_opt,mol_689_solvent_opt,50,35,278.15,-2.8048031347872406,Ganciclovir,ethanol
690.0,CC(C)N1C(=O)N(c2ccccc2)CSC1=NC(C)(C)C,CCO,mol_690_solute_opt,mol_690_solvent_opt,50,24,273.15,-1.0230032536551943,Buprofezin,ethanol
691.0,CC(=O)N(CC(O)CO)c1c(I)c(C(=O)NCC(O)CO)c(I)c(C(=O)NCC(O)CO)c1I,CCO,mol_691_solute_opt,mol_691_solvent_opt,50,20,283.15,-1.7072853133339465,Iohexol,ethanol
692.0,COC(=O)Nc1nc2ccc(C(=O)c3ccc(F)cc3)cc2[nH]1,CCO,mol_692_solute_opt,mol_692_solvent_opt,50,33,283.15,-4.749630078893356,Flubendazole,ethanol
693.0,NC(=O)c1ccc(N)cc1,CCO,mol_693_solute_opt,mol_693_solvent_opt,50,39,283.15,-0.9656859412820288,4-aminobenzamide,ethanol
694.0,O=C(O)[C@H]1O[C@@H](Oc2cc3oc(-c4ccccc4)cc(=O)c3c(O)c2O)[C@H](O)[C@@H](O)[C@@H]1O,CCO,mol_694_solute_opt,mol_694_solvent_opt,50,29,278.15,-2.5250598884569726,Baicalin,ethanol
695.0,Cc1cccc(C(=O)O)c1N,CCO,mol_695_solute_opt,mol_695_solvent_opt,50,35,278.15,-0.5051652605708866,2-amino-3-methylbenzoic acid,ethanol
696.0,N#Cc1cccc([N+](=O)[O-])c1C#N,CCO,mol_696_solute_opt,mol_696_solvent_opt,50,40,278.15,-1.792724127707275,3-nitrophthalonitrile,ethanol
697.0,O=Cc1ccc(C(=O)O)cc1,CCO,mol_697_solute_opt,mol_697_solvent_opt,50,39,283.15,-0.8469657577266094,Terephthalaldehydic acid,ethanol
698.0,O=C(O)Cc1c[nH]c2ccccc12,CCO,mol_698_solute_opt,mol_698_solvent_opt,50,36,278.15,-3.69032967174934,Indole-3-acetic acid,ethanol
699.0,CC1(C)[C@@H]2CC[C@@]1(C)[C@@H](O)C2,CCO,mol_699_solute_opt,mol_699_solvent_opt,50,29,297.95,0.3328856616222696,Borneol,ethanol
700.0,CC1(C)[C@@H]2CC[C@@]1(C)[C@H](O)C2,CCO,mol_700_solute_opt,mol_700_solvent_opt,50,27,298.35,0.9874057666772008,Isoborneol,ethanol
701.0,CC12CCC(CC1=O)C2(C)C,CCO,mol_701_solute_opt,mol_701_solvent_opt,50,28,303.15,0.9896423923808848,Camphor,ethanol
702.0,NC(=O)c1ccc([N+](=O)[O-])cc1,CCO,mol_702_solute_opt,mol_702_solvent_opt,50,36,283.15,-1.5653187532541044,p-Nitrobenzamide,ethanol
703.0,Sc1nc2ccccc2[nH]1,CCO,mol_703_solute_opt,mol_703_solvent_opt,50,40,278.15,-1.0306634058286126,2-mercaptobenzimidazole,ethanol
704.0,NS(=O)(=O)c1cc2c(cc1Cl)NCNS2(=O)=O,CCO,mol_704_solute_opt,mol_704_solvent_opt,50,44,279.95,-1.5721187714540357,Hydrochlorothiazide,ethanol
705.0,N#CCc1ccccc1[N+](=O)[O-],CCO,mol_705_solute_opt,mol_705_solvent_opt,50,39,278.15,-1.096413744171913,o-nitrophenylacetonitrile,ethanol
706.0,OCc1ccc(O[C@@H]2O[C@H](CO)[C@@H](O)[C@H](O)[C@H]2O)cc1,CCO,mol_706_solute_opt,mol_706_solvent_opt,50,27,273.15,-1.8267457236545528,Gastrodin,ethanol
707.0,CC(=NC#N)N(C)Cc1ccc(Cl)nc1,CCO,mol_707_solute_opt,mol_707_solvent_opt,50,37,278.15,-0.5411947875628135,Acetamiprid,ethanol
708.0,O=C1Cc2ccccc2N1,CCO,mol_708_solute_opt,mol_708_solvent_opt,50,37,291.95,-0.8363777461188104,2-oxindole,ethanol
709.0,N[C@H](CC(=O)O)C(=O)O,CCO,mol_709_solute_opt,mol_709_solvent_opt,50,38,288.15,-2.304604614763559,D-aspartic acid,ethanol
710.0,NC(=O)c1ccccc1N,CCO,mol_710_solute_opt,mol_710_solvent_opt,50,35,273.15,-0.2624683659399114,2-aminobenzamide,ethanol
711.0,N#CC(c1ccc(Cl)cc1)c1c(Cl)cc(-n2ncc(=O)[nH]c2=O)cc1Cl,CCO,mol_711_solute_opt,mol_711_solvent_opt,50,34,283.15,-1.5358431506013697,Diclazuril,ethanol
712.0,NS(=O)(=O)c1ccccc1,CCO,mol_712_solute_opt,mol_712_solvent_opt,50,35,273.15,-0.5481760641427631,Benzenesulfonamide,ethanol
713.0,O=P(O)(O)c1ccccc1,CCO,mol_713_solute_opt,mol_713_solvent_opt,50,31,278.15,0.8484443403702813,Phenylphosphonic acid,ethanol
714.0,Fc1c(I)c(F)c(I)c(F)c1I,CCO,mol_714_solute_opt,mol_714_solvent_opt,50,42,290.15,-2.0088617690801973,"1,3,5-trifluoro-2,4,6-triiodobenzene",ethanol
715.0,Nc1nnn[nH]1,CCO,mol_715_solute_opt,mol_715_solvent_opt,50,41,283.15,-1.8581860783817048,5-aminotetrazole,ethanol
716.0,CC(C)=CCC[C@@H](C)[C@H]1CC[C@@]2(C)C3=C(CC[C@]12C)[C@@]1(C)CC[C@H](O)C(C)(C)[C@@H]1CC3,CCO,mol_716_solute_opt,mol_716_solvent_opt,50,19,277.95,-2.202338223519721,Lanosterol,ethanol
717.0,Cc1cnc(C(=O)O)cn1,CCO,mol_717_solute_opt,mol_717_solvent_opt,50,36,273.15,-3.719102724880029,5-methyl-2-pyrazinecarboxylic acid,ethanol
718.0,O=C(O[C@@H]1Cc2c(O)cc(O)cc2O[C@@H]1c1cc(O)c(O)c(O)c1)c1cc(O)c(O)c(O)c1,CCO,mol_718_solute_opt,mol_718_solvent_opt,50,25,278.15,-3.02567089136625,(−)-epigallocatechin gallate,ethanol
719.0,c1cc(-n2c3ccccc3c3ccccc32)cc(-n2c3ccccc3c3ccccc32)c1,CCO,mol_719_solute_opt,mol_719_solvent_opt,50,15,283.15,-2.110151018486192,"1,3-bis(9-carbazolyl)benzene",ethanol
720.0,N=C(N)NC(N)=S,CCO,mol_720_solute_opt,mol_720_solvent_opt,50,34,283.15,-1.1067433255740082,Amidinothiourea,ethanol
721.0,N[C@@H](CO)C(=O)O,CCO,mol_721_solute_opt,mol_721_solvent_opt,50,33,278.15,-3.758887309473328,L-serine,ethanol
722.0,CN1CCN(c2c(F)cc3c(=O)c(C(=O)O)cn4c3c2OCN4C)CC1,CCO,mol_722_solute_opt,mol_722_solvent_opt,50,26,283.15,-2.9381204858615617,Marbofloxacin,ethanol
723.0,Cc1c(C(=O)O)cc([N+](=O)[O-])cc1[N+](=O)[O-],CCO,mol_723_solute_opt,mol_723_solvent_opt,50,34,288.15,-0.0735914757203393,"3,5-dinitro-2-methylbenzoic acid",ethanol
724.0,O=C1C=CC(=O)N1c1ccccc1Br,CCO,mol_724_solute_opt,mol_724_solvent_opt,50,39,278.15,-0.7001009744929259,"1-(2-bromo-phenyl)-pyrrole-2,5-dione",ethanol
725.0,O=[N+]([O-])c1ncccc1O,CCO,mol_725_solute_opt,mol_725_solvent_opt,50,41,278.15,-0.376173184202583,3-hydroxy-2-nitropyridine,ethanol
726.0,Cc1nc(N)nc(N)n1,CCO,mol_726_solute_opt,mol_726_solvent_opt,50,29,283.15,-2.407417039214575,Acetoguanamine,ethanol
727.0,COC(=O)c1ccc(C(=O)OC)cc1,CCO,mol_727_solute_opt,mol_727_solvent_opt,50,37,283.36,-1.7706871711852568,Dimethyl terephthalate,ethanol
728.0,N[C@H](Cc1c[nH]cn1)C(=O)O,CCO,mol_728_solute_opt,mol_728_solvent_opt,50,32,293.15,-2.361941076160143,D-histidine,ethanol
729.0,O=C(O)c1cccnc1Cl,CCO,mol_729_solute_opt,mol_729_solvent_opt,50,40,273.15,-1.2989240617375872,2-chloronicotinic acid,ethanol
730.0,CN(C)[C@@H]1C(=O)C(C(N)=O)=C(O)[C@@]2(O)C(=O)C3=C(O)c4c(O)cccc4C[C@H]3C[C@@H]12,CCO,mol_730_solute_opt,mol_730_solvent_opt,50,26,278.15,-2.6405698997410303,Sancycline,ethanol
731.0,C[C@]12CCC3=C4CCC(=O)C=C4CC[C@H]3[C@@H]1CC[C@@]2(O)CC#N,CCO,mol_731_solute_opt,mol_731_solvent_opt,50,28,273.15,-1.7644386972788038,Dienogest,ethanol
732.0,O=C(Nc1c(Cl)cncc1Cl)c1ccc(OC(F)F)c(OCC2CC2)c1,CCO,mol_732_solute_opt,mol_732_solvent_opt,50,21,278.2,-2.9459737074527164,Roflumilast,ethanol
733.0,C[C@H](N)C(=O)O,CCO,mol_733_solute_opt,mol_733_solvent_opt,50,42,283.15,-2.47598250407523,L-alanine,ethanol
734.0,Nc1c(Cl)cc([N+](=O)[O-])cc1Cl,CCO,mol_734_solute_opt,mol_734_solvent_opt,50,37,278.15,-1.814471416192949,"2,6-dichloro-4-nitroaniline",ethanol
735.0,O=C(O)[C@@H]1CCCN1,CCO,mol_735_solute_opt,mol_735_solvent_opt,50,41,283.15,-1.2701801517297722,L-proline,ethanol
736.0,COC(=O)C(C)(C)N=NC(C)(C)C(=O)OC,CCO,mol_736_solute_opt,mol_736_solvent_opt,50,27,252.85,-0.7698615247589012,"2,2′-azobis(2-methylpropionate)",ethanol
737.0,NC(N)=NC(N)=NCCc1ccccc1,CCO,mol_737_solute_opt,mol_737_solvent_opt,50,28,278.15,-1.4951698259310762,Phenformin,ethanol
738.0,Cc1cc(=O)oc2cc(N)ccc12,CCO,mol_738_solute_opt,mol_738_solvent_opt,50,37,278.15,-1.7849393638697884,7-amino-4-methylcoumarin,ethanol
739.0,CN(C)Cc1c[nH]c2ccccc12,CCO,mol_739_solute_opt,mol_739_solvent_opt,50,33,273.15,-0.4319080461379566,Gramine,ethanol
740.0,Nc1ccc(Cl)cc1[N+](=O)[O-],CCO,mol_740_solute_opt,mol_740_solvent_opt,50,40,278.15,-0.6389271083788955,4-chloro-2-nitroaniline,ethanol
741.0,COc1cc([N+](=O)[O-])ccc1N,CCO,mol_741_solute_opt,mol_741_solvent_opt,50,37,278.15,-1.3381234633187788,2-methoxy-4-nitroaniline,ethanol
742.0,O=Cc1ccc(O)c(Br)c1,CCO,mol_742_solute_opt,mol_742_solvent_opt,50,38,278.15,-0.8776533368794952,3-bromo-4-hydroxybenzaldehyde,ethanol
743.0,Cc1c(Br)cccc1C(=O)O,CCO,mol_743_solute_opt,mol_743_solvent_opt,50,34,278.15,-0.1895533518126707,3-bromo-2-methylbenzoic acid,ethanol
744.0,CC1(C)NC(=O)NC1=O,CCO,mol_744_solute_opt,mol_744_solvent_opt,50,38,283.15,-0.12834452125817,"5,5-dimethylhydantoin",ethanol
745.0,ON(Cc1ccccc1)Cc1ccccc1,CCO,mol_745_solute_opt,mol_745_solvent_opt,50,30,273.15,-1.6521783311747296,"N,N-dibenzylhydroxylamine",ethanol
746.0,COC(=O)C1=C(C)NC(C)=C(C(=O)OCC(C)C)C1c1ccccc1[N+](=O)[O-],CCO,mol_746_solute_opt,mol_746_solvent_opt,50,23,278.15,-1.313481208093105,Nisoldipine,ethanol
747.0,CS(=O)(=O)c1ccc(C(=O)C2C(=O)CCCC2=O)c([N+](=O)[O-])c1,CCO,mol_747_solute_opt,mol_747_solvent_opt,50,25,283.15,-1.3987822355930877,Mesotrione,ethanol
748.0,Cc1nc(CCl)nc2ccccc12,CCO,mol_748_solute_opt,mol_748_solvent_opt,50,34,281.15,0.0525034230813383,2-chloromethyl-4-methylquinazoline,ethanol
749.0,CC(=O)N[C@@H](CC(C)C)C(=O)O,CCO,mol_749_solute_opt,mol_749_solvent_opt,50,30,283.15,-0.3658835217804388,N-acetyl-L-leucine,ethanol
750.0,O=c1[nH]c2ccccc2c(=O)o1,CCO,mol_750_solute_opt,mol_750_solvent_opt,50,36,288.15,-1.6356356005727066,Isatoic anhydride,ethanol
751.0,CC(C(=O)O)c1ccc2c(c1)CC(=O)c1ccccc1S2,CCO,mol_751_solute_opt,mol_751_solvent_opt,50,33,278.15,-1.3344933705101265,Zaltoprofen,ethanol
752.0,Oc1c(Br)cc(Br)c2cccnc12,CCO,mol_752_solute_opt,mol_752_solvent_opt,50,38,288.15,-2.8274703366992395,"5,7-dibromo-8-hydroxyquinoline",ethanol
753.0,CC(=O)NC1(C)CCC2CC1C(C)=NC2(C)C,CCO,mol_753_solute_opt,mol_753_solvent_opt,50,26,298.15,-1.5826606948503028,"8-acetamide-2,4,4,8-tetramethyl-3-azabicyclo[3.3.1]non-2-ene perchlorate",ethanol
754.0,N[C@@H](C(=O)O)c1ccc(O)cc1,CCO,mol_754_solute_opt,mol_754_solvent_opt,50,38,278.28,-2.79225501749852,D-(p-hydroxy)phenylglycine,ethanol
755.0,O=C1CCC(c2ccc(Cl)c(Cl)c2)c2ccccc21,CCO,mol_755_solute_opt,mol_755_solvent_opt,50,26,283.12,-1.5262383766964052,"4-(3,4-dichlorophenyl)-1-tetralone",ethanol
756.0,C[C@@H]1CC[C@H]2[C@@H](C)C(=O)O[C@@H]3O[C@@]4(C)CC[C@@H]1[C@]32OO4,CCO,mol_756_solute_opt,mol_756_solvent_opt,50,27,278.2,-1.759351110550546,Artemisinin,ethanol
757.0,OC[C@@H](O)C(O)[C@@H](O)CO,CCO,mol_757_solute_opt,mol_757_solvent_opt,50,31,293.23,-1.5277861304903462,Xylitol,ethanol
758.0,c1nc[nH]n1,CCO,mol_758_solute_opt,mol_758_solvent_opt,50,38,283.18,0.4184990601154861,"1H-1,2,4-triazole",ethanol
759.0,CN/C(=C\[N+](=O)[O-])NCCSCc1csc(CN(C)C)n1,CCO,mol_759_solute_opt,mol_759_solvent_opt,50,31,273.15,-1.2974038427095316,Nizatidine,ethanol
760.0,CCN1CCCC1CNC(=O)c1cc(S(N)(=O)=O)ccc1OC,CCO,mol_760_solute_opt,mol_760_solvent_opt,50,27,288.76,-2.1105294966654737,Sulpiride,ethanol
761.0,C[C@@]12C[C@H]3OC(=O)[C@@H]1CO[C@]14O[C@@]5([C@H]2C1=O)[C@@]3(C)OC(=O)[C@@]5(O)CC[C@H]1[C@H]4C[C@@H](O)[C@@]2(O)CC=CC(=O)[C@]12C,CCO,mol_761_solute_opt,mol_761_solvent_opt,50,21,283.2,-1.1685243217572392,Physalin D,ethanol
762.0,CC(C)Cc1ccc(C(C)C(=O)O)cc1,CCO,mol_762_solute_opt,mol_762_solvent_opt,50,27,285.05,0.3855437307199064,Ibuprofen,ethanol
763.0,COc1ccc(P(=O)(c2ccc(OC)cc2)c2ccc(OC)cc2)cc1,CCO,mol_763_solute_opt,mol_763_solvent_opt,50,22,298.25,-2.2001384479288544,Tri(p-methoxyphenyl)phosphine oxide,ethanol
764.0,COc1ccc(P(c2ccc(OC)cc2)c2ccc(OC)cc2)cc1,CCO,mol_764_solute_opt,mol_764_solvent_opt,50,30,293.16,-1.8414030832592805,Tri(p-methoxyphenyl)phosphine,ethanol
765.0,O=P1(Oc2ccccc2)OCC2(CO1)COP(=O)(Oc1ccccc1)OC2,CCO,mol_765_solute_opt,mol_765_solvent_opt,50,24,298.16,-1.6343274360287283,"3,9-diphenoxy-2,4,8,10-tetraoxa-3,9-diphosphaspiro-[5.5]-undecane-3,9-dioxide",ethanol
766.0,N[C@@H](Cc1ccc([N+](=O)[O-])cc1[N+](=O)[O-])C(=O)O,CCO,mol_766_solute_opt,mol_766_solvent_opt,50,36,273.15,-3.2205922969890595,"2,4-dinitro-L-phenylalanine",ethanol
767.0,CO/N=C(/C(=O)N[C@@H]1C(=O)N2C(C(=O)O)=C(COC(N)=O)CS[C@H]12)c1ccco1,CCO,mol_767_solute_opt,mol_767_solvent_opt,50,25,278.5,-2.480221046730178,Cefuroxime acid,ethanol
768.0,CO[C@H]1C[C@@H]2CC[C@@H](C)[C@@](O)(O2)C(=O)C(=O)N2CCCC[C@H]2C(=O)O[C@H]([C@H](C)C[C@@H]2CC[C@@H](O)[C@H](OC)C2)CC(=O)[C@H](C)/C=C(\C)[C@@H](O)[C@@H](OC)C(=O)[C@H](C)C[C@H](C)/C=C/C=C/C=C/1C,CCO,mol_768_solute_opt,mol_768_solvent_opt,50,15,295.0,-1.629616717891768,Sirolimus,ethanol
769.0,O=C(O)c1ccccc1,CCO,mol_769_solute_opt,mol_769_solvent_opt,50,37,278.15,0.407801832275439,Benzoic acid,ethanol
770.0,O=C1C=CC(=O)N1c1cc(F)c(Br)c(F)c1,CCO,mol_770_solute_opt,mol_770_solvent_opt,50,40,288.65,-2.2866333093583417,"N-[(4-bromo-3,5-difluorine)-phenyl]maleimide",ethanol
771.0,COC(=O)/C=C/C(=O)OC,CCO,mol_771_solute_opt,mol_771_solvent_opt,50,39,289.95,-1.2476051317561774,Dimethyl fumarate,ethanol
772.0,CP(=O)(O)c1ccccc1,CCO,mol_772_solute_opt,mol_772_solvent_opt,50,34,293.25,0.6466273316448617,Methylphenylphosphinic acid,ethanol
773.0,ClP1(Cl)=NP(Cl)(Cl)=NP(Cl)(Cl)=N1,CCO,mol_773_solute_opt,mol_773_solvent_opt,50,46,298.45,-0.738663622156277,Hexachlorocyclotriphosphazene,ethanol
774.0,O=[PH](O)c1ccccc1,CCO,mol_774_solute_opt,mol_774_solvent_opt,50,35,283.25,0.2280259532284106,Phenylphosphinic acid,ethanol
775.0,c1ccc(OP2(Oc3ccccc3)=NP(Oc3ccccc3)(Oc3ccccc3)=NP(Oc3ccccc3)(Oc3ccccc3)=N2)cc1,CCO,mol_775_solute_opt,mol_775_solvent_opt,50,15,298.25,-0.7820402893254199,Hexaphenoxycyclotriphosphazene,ethanol
776.0,COc1cc(CNC(=O)CCCCCCC(C)C)ccc1O,CCO,mol_776_solute_opt,mol_776_solvent_opt,50,27,301.79,0.5832013494852963,Dihydrocapsaicin,ethanol
777.0,O=[N+]([O-])c1cc([N+](=O)[O-])c(O)c(Cl)c1O,CCO,mol_777_solute_opt,mol_777_solvent_opt,50,37,299.35,-1.2949847329925075,"2-chloro-4,6-dinitroresorcinol",ethanol
778.0,CC(C)Cc1ccc([C@H](C)C(=O)O)cc1,CCO,mol_778_solute_opt,mol_778_solvent_opt,50,22,263.15,0.3998600355283941,Dexibuprofen,ethanol
779.0,O=C(CCc1ccc(O)cc1)c1c(O)cc(O)cc1O,CCO,mol_779_solute_opt,mol_779_solvent_opt,50,30,288.2,-0.2106028782913666,Phloretin,ethanol
780.0,CC(=O)OCC(=O)[C@@]1(O)CC[C@H]2[C@@H]3CCC4=CC(=O)C=C[C@]4(C)[C@H]3C(=O)C[C@@]21C,CCO,mol_780_solute_opt,mol_780_solvent_opt,50,26,296.45,-1.8853456118241927,Prednisone acetate,ethanol
781.0,C[C@H]1[C@H](C)CC[C@]2(C(=O)O[C@@H]3O[C@H](CO[C@@H]4O[C@H](CO)[C@@H](O[C@@H]5O[C@@H](C)[C@H](O)[C@@H](O)[C@H]5O)[C@H](O)[C@H]4O)[C@@H](O)[C@H](O)[C@H]3O)CC[C@]3(C)C(=CC[C@@H]4[C@@]5(C)C[C@@H](O)[C@H](O)[C@@](C)(CO)[C@@H]5CC[C@]43C)[C@H]12,CCO,mol_781_solute_opt,mol_781_solvent_opt,50,15,298.15,-2.6208732128852352,Asiaticoside,ethanol
782.0,c1ccc2c(c1)ccc1ccccc12,CCO,mol_782_solute_opt,mol_782_solvent_opt,50,33,298.2,-0.6877306592782657,Phenanthrene,ethanol
783.0,N=c1nc(N2CCCCC2)cc(N)n1O,CCO,mol_783_solute_opt,mol_783_solvent_opt,50,32,278.15,-1.165013475172033,Minoxidil,ethanol
784.0,CC1(C)CC[C@]2(C(=O)O)CC[C@]3(C)C(=CC[C@@H]4[C@@]5(C)CC[C@H](O)C(C)(C)[C@@H]5CC[C@]43C)[C@@H]2C1,CCO,mol_784_solute_opt,mol_784_solvent_opt,50,18,283.2,-1.8865948314315144,Oleanolic acid,ethanol
785.0,C[C@H]1[C@H](C)CC[C@]2(C(=O)O)CC[C@]3(C)C(=CC[C@@H]4[C@@]5(C)CC[C@H](O)C(C)(C)[C@@H]5CC[C@]43C)[C@H]12,CCO,mol_785_solute_opt,mol_785_solvent_opt,50,18,293.6,-2.0553261590109737,Ursolic acid,ethanol
786.0,CC(=O)O[C@H]1CC[C@@]2(C)C(=CC[C@@H]3[C@@H]2CC[C@]2(C)C(C(C)=O)=CC[C@@H]32)C1,CCO,mol_786_solute_opt,mol_786_solvent_opt,50,30,285.0,-1.75054944095546,16-dehydropregnenolone acetate,ethanol
787.0,CO/N=C(\C(=O)O)c1csc(N)n1,CCO,mol_787_solute_opt,mol_787_solvent_opt,50,32,283.12,-2.922117188088447,(Z)-2-(2-aminothiazol-4-yl)-2-methoxyiminoacetic acid,ethanol
788.0,Clc1cc(Cl)c(OCCBr)c(Cl)c1,CCO,mol_788_solute_opt,mol_788_solvent_opt,50,35,278.2,-0.9120178670579906,"2-(2,4,6-trichlorophenoxy)ethyl bromide",ethanol
789.0,c1ccc2c(c1)Nc1ccccc1S2,CCO,mol_789_solute_opt,mol_789_solvent_opt,50,32,298.2,-0.8221514342306441,Phenothiazine,ethanol
790.0,c1ccc2c(c1)OP1(=NP3(=NP4(=N1)Oc1ccccc1O4)Oc1ccccc1O3)O2,CCO,mol_790_solute_opt,mol_790_solvent_opt,50,23,293.95,-2.787748935289424,Tris(o-phenylenedioxy)cyclotriphosphazene,ethanol
791.0,C=C(C)[C@@H]1CC[C@]2(C(=O)O)CC[C@]3(C)[C@H](CC[C@@H]4[C@@]5(C)CC[C@H](O)C(C)(C)[C@@H]5CC[C@]43C)[C@@H]12,CCO,mol_791_solute_opt,mol_791_solvent_opt,50,18,278.2,-1.9450514878112943,Betulinic acid,ethanol
792.0,C[N+](C)(C)CC(=O)[O-],CCO,mol_792_solute_opt,mol_792_solvent_opt,50,35,282.95,-0.3282818414417403,Betaine,ethanol
793.0,c1ccc2c(c1)oc1ccccc12,CCO,mol_793_solute_opt,mol_793_solvent_opt,50,42,283.15,-0.4280795132174145,"Dibenzo[b,d]furan",ethanol
794.0,Nc1ccc(Cl)nn1,CCO,mol_794_solute_opt,mol_794_solvent_opt,50,41,298.15,-1.452799734134385,6-chloropyridazin-3-amine,ethanol
795.0,Cc1cc(C)c(C(=O)P(=O)(C(=O)c2c(C)cc(C)cc2C)c2ccccc2)c(C)c1,CCO,mol_795_solute_opt,mol_795_solvent_opt,50,17,295.4,-1.1949638543032388,"Bis(2,4,6-trimethylbenzoyl)phenylphosphine oxide",ethanol
796.0,Nc1cccnn1,CCO,mol_796_solute_opt,mol_796_solvent_opt,50,38,288.35,-0.4699497850243631,Pyridazin-3-amine,ethanol
797.0,Cc1nc(-c2ccc(OCC(C)C)c(C#N)c2)sc1C(=O)O,CCO,mol_797_solute_opt,mol_797_solvent_opt,50,37,293.15,-1.6775382385269035,Febuxostat,ethanol
798.0,CN1C(=O)CN=C(c2ccccc2)c2cc(Cl)ccc21,CCO,mol_798_solute_opt,mol_798_solvent_opt,50,34,298.2,-1.0793754623983984,Diazepam,ethanol
799.0,O=C1CN=C(c2ccccc2Cl)c2cc([N+](=O)[O-])ccc2N1,CCO,mol_799_solute_opt,mol_799_solvent_opt,50,32,298.2,-2.227058530540308,Clonazepam,ethanol
800.0,C[C@@H]1OC(=O)[C@H](C)OC1=O,CCO,mol_800_solute_opt,mol_800_solvent_opt,50,40,283.95,-1.31248993833398,L-lactide,ethanol
801.0,O=P(CCCO)(CCCO)CCCO,CCO,mol_801_solute_opt,mol_801_solvent_opt,50,27,298.12,-0.4040089005553749,Tris(3-hydroxypropyl)phosphine oxide,ethanol
802.0,Clc1ccc(SSc2ccc(Cl)cc2)cc1,CCO,mol_802_solute_opt,mol_802_solvent_opt,50,40,304.35,-2.34974108924438,"4,4′-dichlorodiphenyl disulfide",ethanol
803.0,COc1ccc(C(=O)O)cc1OC,CCO,mol_803_solute_opt,mol_803_solvent_opt,50,26,278.15,-1.2133009111260928,Veratric acid,ethanol
804.0,O=C1C[C@@H](c2ccc(O)cc2)Oc2cc(O)cc(O)c21,CCO,mol_804_solute_opt,mol_804_solvent_opt,50,31,283.15,-5.162832960829511,Naringenin,ethanol
805.0,O=C(O)[C@@H]1Cc2ccccc2N1,CCO,mol_805_solute_opt,mol_805_solvent_opt,50,36,283.15,-1.5348079906605538,(S)-indoline-2-carboxylic acid,ethanol
806.0,CC1=C(C(=O)O)N2C(=O)[C@@H](NC(=O)[C@H](N)C3=CCC=CC3)[C@H]2SC1,CCO,mol_806_solute_opt,mol_806_solvent_opt,50,24,283.15,-2.4897008128085862,Cefradine,ethanol