pair_id,SMILES_Solute,SMILES_Solvent,Solute_name,Solvent_name,Total_conformers,Filtered_conformers,Temperature_K,LogS,Compound_Name,Solvent
6518.0,O=P(CCCO)(CCCO)CCCO,CC(C)CO,mol_6518_solute_opt,mol_6518_solvent_opt,50,39,293.11,-0.8726745795231117,Tris(3-hydroxypropyl)phosphine oxide,isobutanol
6519.0,COc1ccc(C(=O)O)cc1OC,CC(C)CO,mol_6519_solute_opt,mol_6519_solvent_opt,50,42,277.9,-1.7826355729930623,Veratric acid,isobutanol
6520.0,CCCCCCCCCCCC(=O)O,CC(C)CO,mol_6520_solute_opt,mol_6520_solvent_opt,50,38,276.17,-0.1101618294814251,Lauric acid,isobutanol
6521.0,COc1ccc(C(=O)O)c(OC)c1,CC(C)CO,mol_6521_solute_opt,mol_6521_solvent_opt,50,40,288.15,-1.1903145667687702,"2,4-dimethoxybenzoic acid",isobutanol
6522.0,O=C(Oc1ccccc1)Oc1ccccc1,CC(C)CO,mol_6522_solute_opt,mol_6522_solvent_opt,50,40,283.0,-1.1420939246312292,Diphenyl carbonate,isobutanol
6523.0,O=C(Oc1ccccc1)c1ccccc1O,CC(C)CO,mol_6523_solute_opt,mol_6523_solvent_opt,50,41,283.15,-0.6853488871077156,Salol,isobutanol
6524.0,c1ccc2c(c1)Cc1ccccc1-2,CC(C)CO,mol_6524_solute_opt,mol_6524_solvent_opt,50,46,283.0,-1.331284177380647,Fluorene,isobutanol
6525.0,c1cc2c3c(cccc3c1)CC2,CC(C)CO,mol_6525_solute_opt,mol_6525_solvent_opt,50,48,283.0,-0.9908715031596426,Acenaphthene,isobutanol
6526.0,CO/N=C(\C(=O)Sc1nc2ccccc2s1)c1csc(N)n1,CC(C)CO,mol_6526_solute_opt,mol_6526_solvent_opt,50,39,277.67,-2.788369749450695,"(α,Z)-2-Amino-α-(methoxyimino)-4-thiazole-ethanethioic Acid S-2-Benzothiazolyl Ester",isobutanol
6527.0,CC1(C)COP(=O)(Oc2cc(OP3(=O)OCC(C)(C)CO3)cc(OP3(=O)OCC(C)(C)CO3)c2)OC1,C1COCCO1,mol_6527_solute_opt,mol_6527_solvent_opt,50,23,288.15,-2.9868212974093566,"Phloroglucinol tris(cyclic 2,2-dimethyl-1,3-propanediol phosphate)","1,4-dioxane"
6528.0,O=C1C[C@@H](c2ccc(O)cc2)Oc2cc(O)cc(O)c21,C1COCCO1,mol_6528_solute_opt,mol_6528_solvent_opt,50,37,298.15,-0.0774091170740017,Naringenin,"1,4-dioxane"
6529.0,Cc1cccc(C(=O)O)c1[N+](=O)[O-],C1COCCO1,mol_6529_solute_opt,mol_6529_solvent_opt,50,40,285.65,-0.4659495832641026,3-methyl-2-nitrobenzoic acid,"1,4-dioxane"
6530.0,O=C(Nc1ccc(Cl)cc1)Nc1ccc(Cl)c(Cl)c1,C1COCCO1,mol_6530_solute_opt,mol_6530_solvent_opt,50,36,288.15,-1.91463842698454,Triclocarban,"1,4-dioxane"
6531.0,Brc1cc(Br)cc(Br)c1,C1COCCO1,mol_6531_solute_opt,mol_6531_solvent_opt,50,45,288.15,-0.081693918558072,"1,3,5-tribromobenzene","1,4-dioxane"
6532.0,Nc1ccc(O)c(C(=O)O)c1,C1COCCO1,mol_6532_solute_opt,mol_6532_solvent_opt,50,46,293.2,-2.8696239155598224,Mesalazine,"1,4-dioxane"
6533.0,CCCCCCCCCCCCCCCCCC(=O)O,C1COCCO1,mol_6533_solute_opt,mol_6533_solvent_opt,50,38,301.65,-0.4265793574585313,Stearic acid,"1,4-dioxane"
6534.0,O=[N+]([O-])c1c[nH]cn1,C1COCCO1,mol_6534_solute_opt,mol_6534_solvent_opt,50,47,284.15,-2.3943669496690165,4-nitroimidazole,"1,4-dioxane"
6535.0,COc1ccc2c(c1)c(CC(=O)O)c(C)n2C(=O)c1ccc(Cl)cc1,C1COCCO1,mol_6535_solute_opt,mol_6535_solvent_opt,50,35,293.15,-0.5231940734624629,Indomethacin,"1,4-dioxane"
6536.0,O=C(O)CC(=O)O,C1COCCO1,mol_6536_solute_opt,mol_6536_solvent_opt,50,42,303.2,0.4120567565735221,Malonic acid,"1,4-dioxane"
6537.0,O=C(O)CC(O)(CC(=O)O)C(=O)O,C1COCCO1,mol_6537_solute_opt,mol_6537_solvent_opt,50,40,303.2,-0.1302379309562846,Citric acid,"1,4-dioxane"
6538.0,O=C(O)CC(O)C(=O)O,C1COCCO1,mol_6538_solute_opt,mol_6538_solvent_opt,50,44,303.2,0.2763682566944408,Malic acid,"1,4-dioxane"
6539.0,NC(N)=C([N+](=O)[O-])[N+](=O)[O-],C1COCCO1,mol_6539_solute_opt,mol_6539_solvent_opt,50,43,298.15,-3.075682401913779,"1,1-diamino-2,2-dinitroethylene (FOX-7)","1,4-dioxane"
6540.0,NC(=O)c1cnccn1,C1COCCO1,mol_6540_solute_opt,mol_6540_solvent_opt,50,44,293.15,-1.070177421552917,Pyrazinamide,"1,4-dioxane"
6541.0,O=C1NC(=O)C2C3C=CC(C3)C12,C1COCCO1,mol_6541_solute_opt,mol_6541_solvent_opt,50,41,288.15,-0.3516233627987228,"5-norbornene-2,3-dicarboximide","1,4-dioxane"
6542.0,CC(=O)NS(=O)(=O)c1ccc(N)cc1,C1COCCO1,mol_6542_solute_opt,mol_6542_solvent_opt,50,38,293.15,-0.7624201968847741,Sulfacetamide,"1,4-dioxane"
6543.0,Nc1ccc(S(N)(=O)=O)cc1,C1COCCO1,mol_6543_solute_opt,mol_6543_solvent_opt,50,32,293.15,0.0021868669037887,Sulfanilamide,"1,4-dioxane"
6544.0,O=C1c2cccc(Cl)c2C(=O)N1c1ccccc1,C1COCCO1,mol_6544_solute_opt,mol_6544_solvent_opt,50,42,288.15,-1.0079776382201688,3-chloro-N-phenylphthalimide,"1,4-dioxane"
6545.0,Nc1ccc(N2CCOCC2=O)cc1,C1COCCO1,mol_6545_solute_opt,mol_6545_solvent_opt,50,40,278.15,-1.3074846024956226,4-(4-aminophenyl)-3-morpholinone,"1,4-dioxane"
6546.0,Cc1cccc([N+](=O)[O-])c1N,C1COCCO1,mol_6546_solute_opt,mol_6546_solvent_opt,50,42,283.15,0.4160682148379853,2-methyl-6-nitroaniline,"1,4-dioxane"
6547.0,O=S(=O)(c1ccc(O)cc1)c1ccccc1O,C1COCCO1,mol_6547_solute_opt,mol_6547_solvent_opt,50,31,278.15,-0.6511946227516271,"2,4′-dihydroxydiphenyl sulfone","1,4-dioxane"
6548.0,Cc1cc(C(=O)O)ccc1[N+](=O)[O-],C1COCCO1,mol_6548_solute_opt,mol_6548_solvent_opt,50,43,283.15,-0.2975674184063568,3-methyl-4-nitrobenzoic acid,"1,4-dioxane"
6549.0,CC1=NN(c2ccc(C)cc2)C(=O)C1,C1COCCO1,mol_6549_solute_opt,mol_6549_solvent_opt,50,35,283.15,-0.382045059900225,"2,4-dihydro-5-methyl-2-(4-methylphenyl)-3H-pyrazol-3-one","1,4-dioxane"
6550.0,C[C@@H]1O[C@@H](OC[C@H]2O[C@@H](Oc3c(-c4ccc(OCCO)c(OCCO)c4)oc4cc(OCCO)cc(O)c4c3=O)[C@H](O)[C@@H](O)[C@@H]2O)[C@H](O)[C@H](O)[C@H]1O,C1COCCO1,mol_6550_solute_opt,mol_6550_solvent_opt,50,27,288.15,-2.214208074133724,Troxerutin,"1,4-dioxane"
6551.0,Nc1nnc[nH]1,C1COCCO1,mol_6551_solute_opt,mol_6551_solvent_opt,50,47,288.15,-1.4152969272811768,"3-amino-1,2,4-triazole","1,4-dioxane"
6552.0,O=C(NC[C@H]1CN(c2ccc(N3CCOCC3=O)cc2)C(=O)O1)c1ccc(Cl)s1,C1COCCO1,mol_6552_solute_opt,mol_6552_solvent_opt,50,35,288.15,-2.807291943674524,Rivaroxaban,"1,4-dioxane"
6553.0,CC(C)(C)[C@H](O)[C@H](Cc1ccc(Cl)cc1)n1cncn1,C1COCCO1,mol_6553_solute_opt,mol_6553_solvent_opt,50,38,278.15,-0.7223144443515053,Paclobutrazol,"1,4-dioxane"
6554.0,Cn1cnc([N+](=O)[O-])c1Cl,C1COCCO1,mol_6554_solute_opt,mol_6554_solvent_opt,50,38,283.15,-1.068347206412508,5-chloro-1-methyl-4-nitroimidazole,"1,4-dioxane"
6555.0,COc1cc(Cl)nc(N)n1,C1COCCO1,mol_6555_solute_opt,mol_6555_solvent_opt,50,48,283.15,-0.5548116470512992,2-amino-4-chloro-6-methoxypyrimidine,"1,4-dioxane"
6556.0,Nc1ccc([N+](=O)[O-])cc1N,C1COCCO1,mol_6556_solute_opt,mol_6556_solvent_opt,50,44,283.15,-1.1864865327815983,"4-nitro-1,2-phenylenediamine","1,4-dioxane"
6557.0,Nc1cc(Cl)ccc1C(=O)O,C1COCCO1,mol_6557_solute_opt,mol_6557_solvent_opt,50,39,283.15,-0.71896419272821,2-amino-4-chlorobenzoic acid,"1,4-dioxane"
6558.0,Nc1ccc(N)c([N+](=O)[O-])c1,C1COCCO1,mol_6558_solute_opt,mol_6558_solvent_opt,50,44,285.65,-0.2510877872135355,2-nitro-p-phenylenediamine,"1,4-dioxane"
6559.0,Cc1ccc(N)c([N+](=O)[O-])c1,C1COCCO1,mol_6559_solute_opt,mol_6559_solvent_opt,50,41,283.15,-0.3009170485001477,4-methyl-2-nitroaniline,"1,4-dioxane"
6560.0,Cc1c(C(=O)O)cccc1[N+](=O)[O-],C1COCCO1,mol_6560_solute_opt,mol_6560_solvent_opt,50,40,285.65,-0.047638746988753,2-methyl-3-nitrobenzoic acid,"1,4-dioxane"
6561.0,c1ccc(-c2nnn[nH]2)cc1,C1COCCO1,mol_6561_solute_opt,mol_6561_solvent_opt,50,37,283.15,-0.9530269693014648,5-phenyltetrazole,"1,4-dioxane"
6562.0,S=c1[nH]c2ccccc2s1,C1COCCO1,mol_6562_solute_opt,mol_6562_solvent_opt,50,42,285.65,-0.2654798105231283,2-mercaptobenzothiazole,"1,4-dioxane"
6563.0,NC(=O)c1ncn([C@@H]2O[C@H](CO)[C@@H](O)[C@H]2O)n1,C1COCCO1,mol_6563_solute_opt,mol_6563_solvent_opt,50,38,283.15,-3.0764453699341336,Ribavirin(II),"1,4-dioxane"
6564.0,Nc1ccc(S(=O)(=O)c2ccc(N)cc2)cc1,C1COCCO1,mol_6564_solute_opt,mol_6564_solvent_opt,50,26,288.15,-0.86526892161133,Dapsone,"1,4-dioxane"
6565.0,NC(=NCCCCCCN=C(N)/N=C(\N)Nc1ccc(Cl)cc1)/N=C(\N)Nc1ccc(Cl)cc1,C1COCCO1,mol_6565_solute_opt,mol_6565_solvent_opt,50,26,288.15,-2.172869340107437,Chlorhexidine,"1,4-dioxane"
6566.0,Cc1c(C(N)=O)cc([N+](=O)[O-])cc1[N+](=O)[O-],C1COCCO1,mol_6566_solute_opt,mol_6566_solvent_opt,50,34,288.15,-0.2277008109491097,Dinitolmide,"1,4-dioxane"
6567.0,Oc1c(Cl)cc(Cl)c2cccnc12,C1COCCO1,mol_6567_solute_opt,mol_6567_solvent_opt,50,39,293.15,-1.209899284498172,Chloroxine,"1,4-dioxane"
6568.0,COC(=O)Nc1nc2ccc(Sc3ccccc3)cc2[nH]1,C1COCCO1,mol_6568_solute_opt,mol_6568_solvent_opt,50,42,288.15,-1.8860525335065697,Fenbendazole,"1,4-dioxane"
6569.0,O=C1OC(=O)[C@H]2[C@@H]1[C@@H]1C=C[C@H]2C1,C1COCCO1,mol_6569_solute_opt,mol_6569_solvent_opt,50,40,288.15,-0.0395054951496516,"cis-5-norbornene-exo-2,3-dicarboxylic anhydride","1,4-dioxane"
6570.0,CN1COCN(Cc2cnc(Cl)s2)C1=N[N+](=O)[O-],C1COCCO1,mol_6570_solute_opt,mol_6570_solvent_opt,50,34,288.15,-1.5201034461873313,Thiamethoxam,"1,4-dioxane"
6571.0,N#Cc1ccc2c(c1)OCO2,C1COCCO1,mol_6571_solute_opt,mol_6571_solvent_opt,50,46,288.15,0.3971551481604951,Piperonylonitrile,"1,4-dioxane"
6572.0,Clc1ccccc1C(c1ccccc1)(c1ccccc1)n1ccnc1,C1COCCO1,mol_6572_solute_opt,mol_6572_solvent_opt,50,36,288.15,-0.3249427160419866,Clotrimazole,"1,4-dioxane"
6573.0,O=c1cc(CO)occ1O,C1COCCO1,mol_6573_solute_opt,mol_6573_solvent_opt,50,45,288.15,-1.0812137901230296,Kojic acid,"1,4-dioxane"
6574.0,Oc1ccc(Cl)c2cccnc12,C1COCCO1,mol_6574_solute_opt,mol_6574_solvent_opt,50,47,288.15,-0.1578390020599163,5-chloro-8-hydroxyquinoline,"1,4-dioxane"
6575.0,CC(=O)Nc1ccc(C(=O)O)cc1,C1COCCO1,mol_6575_solute_opt,mol_6575_solvent_opt,50,40,288.15,-1.477994800301501,p-acetamidobenzoic acid,"1,4-dioxane"
6576.0,CC(C)C(=O)Nc1ccc([N+](=O)[O-])c(C(F)(F)F)c1,C1COCCO1,mol_6576_solute_opt,mol_6576_solvent_opt,50,37,283.15,0.2100135530913646,Flutamide,"1,4-dioxane"
6577.0,O=c1c2ccccc2sc2ccccc12,C1COCCO1,mol_6577_solute_opt,mol_6577_solvent_opt,50,44,292.15,-0.9626794509821738,9H-thioxanthen-9-one,"1,4-dioxane"
6578.0,CC1(C)[C@@H](O)CC[C@]2(C)[C@H]3C(=O)C=C4[C@@H]5C[C@@](C)(C(=O)O)CC[C@]5(C)CC[C@@]4(C)[C@]3(C)CC[C@@H]12,C1COCCO1,mol_6578_solute_opt,mol_6578_solvent_opt,50,34,288.15,-0.4729213319128686,18β-glycyrrhetinic acid,"1,4-dioxane"
6579.0,C1=Cc2ccccc2Nc2ccccc21,C1COCCO1,mol_6579_solute_opt,mol_6579_solvent_opt,50,36,288.15,-0.4201464436990498,Iminostilbene,"1,4-dioxane"
6580.0,Clc1cccnc1Cl,C1COCCO1,mol_6580_solute_opt,mol_6580_solvent_opt,50,47,288.15,0.5734483423227078,"2,3-dichloropyridine","1,4-dioxane"
6581.0,O=C(O)/C=C/c1ccc(Cl)cc1,C1COCCO1,mol_6581_solute_opt,mol_6581_solvent_opt,50,41,288.15,-1.007606147541665,trans-4-chlorocinnamic acid,"1,4-dioxane"
6582.0,O=C(O)c1cccc([N+](=O)[O-])c1,C1COCCO1,mol_6582_solute_opt,mol_6582_solvent_opt,50,39,298.2,0.445874140454147,3-nitrobenzoic acid,"1,4-dioxane"
6583.0,COc1ccccc1OCC(O)COC(N)=O,C1COCCO1,mol_6583_solute_opt,mol_6583_solvent_opt,50,39,298.15,-1.4116466530995273,Methocarbamol,"1,4-dioxane"
6584.0,COc1cc(-c2cc(-c3ccc(Br)cc3)[nH]c(=O)c2C#N)ccc1O,C1COCCO1,mol_6584_solute_opt,mol_6584_solvent_opt,50,40,298.15,-1.7854717591622105,"6-(4-bromophenyl)-4-(4-hydroxy-3-methoxyphenyl)-2-oxo-1,2-dihydropyridine-3-carbonitrile","1,4-dioxane"
6585.0,COc1cc(-c2cc(-c3ccc(Cl)cc3)[nH]c(=O)c2C#N)ccc1O,C1COCCO1,mol_6585_solute_opt,mol_6585_solvent_opt,50,38,298.15,-1.7586288943048405,"6-(4-chlorophenyl)-4-(4-hydroxy-3-methoxyphenyl)-2-oxo-1,2-dihydropyridine-3-carbonitrile","1,4-dioxane"