pair_id,SMILES_Solute,SMILES_Solvent,Solute_name,Solvent_name,Total_conformers,Filtered_conformers,Temperature_K,LogS,Compound_Name,Solvent
2902.0,CCC(N)=O,O,mol_2902_solute_opt,mol_2902_solvent_opt,50,26,278.15,0.932440719033782,Propionamide,water
2903.0,CCCC(N)=O,O,mol_2903_solute_opt,mol_2903_solvent_opt,50,23,278.15,-0.0363223624735506,Butyramide,water
2904.0,OC[C@H]1O[C@H](O[C@]2(CCl)O[C@H](CCl)[C@@H](O)[C@@H]2O)[C@H](O)[C@@H](O)[C@H]1Cl,O,mol_2904_solute_opt,mol_2904_solvent_opt,50,11,283.15,-0.2221192681136944,Sucralose,water
2905.0,Oc1cc(O)c2cc(O)c(-c3cc(O)c(O)c(O)c3)[o+]c2c1,O,mol_2905_solute_opt,mol_2905_solvent_opt,50,17,298.15,-4.528319852767435,Delphinidin,water
2906.0,O=C(O)CNCP(=O)(O)O,O,mol_2906_solute_opt,mol_2906_solvent_opt,50,18,293.67,-1.206818373739941,Glyphosate,water
2907.0,Nc1ccc(S(=O)(=O)Nc2nccs2)cc1,O,mol_2907_solute_opt,mol_2907_solvent_opt,50,18,298.15,-2.744886239989524,Sulfathiazole,water
2908.0,CCOC(=O)c1ccc(N)cc1,O,mol_2908_solute_opt,mol_2908_solvent_opt,50,13,298.15,-2.235682426244012,Benzocaine,water
2909.0,C=CCC,O,mol_2909_solute_opt,mol_2909_solvent_opt,50,30,293.15,-2.277323637333053,1-butene,water
2910.0,CCCCCCCCCCCCCCCCCC(=O)OCCO,CCOC(C)=O,mol_2910_solute_opt,mol_2910_solvent_opt,50,30,297.45,-0.9160472593743896,Ethylene glycol monostearate,ethyl acetate
2911.0,CC(=O)C1=C(O)C=C2Oc3c(C(C)=O)c(O)c(C)c(O)c3[C@]2(C)C1=O,CCOC(C)=O,mol_2911_solute_opt,mol_2911_solvent_opt,50,35,288.15,-1.9517460547289032,(+)-usnic acid,ethyl acetate
2912.0,COc1ccc2nc(SCc3ncc(C)c(OC)c3C)[nH]c2c1,CCOC(C)=O,mol_2912_solute_opt,mol_2912_solvent_opt,50,32,280.35,-1.4630171407721713,Omeprazole sulfide,ethyl acetate
2913.0,COC1=C(OC)C(=O)C(C/C=C(\C)CC/C=C(\C)CC/C=C(\C)CC/C=C(\C)CC/C=C(\C)CC/C=C(\C)CC/C=C(\C)CC/C=C(\C)CC/C=C(\C)CCC=C(C)C)=C(C)C1=O,CCOC(C)=O,mol_2913_solute_opt,mol_2913_solvent_opt,50,36,270.15,-2.1986298983130323,Coenzyme Q10,ethyl acetate
2914.0,COC(=O)NCCCCCCNC(=O)OC,CCOC(C)=O,mol_2914_solute_opt,mol_2914_solvent_opt,50,40,298.15,-1.0792833993033193,Hexamethylene bis(methylcarbamate),ethyl acetate
2915.0,CCCc1nc2c(C)cc(-c3nc4ccccc4n3C)cc2n1Cc1ccc(-c2ccccc2C(=O)O)cc1,CCOC(C)=O,mol_2915_solute_opt,mol_2915_solvent_opt,50,26,283.65,-3.592193231108728,Telmisartan,ethyl acetate
2916.0,CC(=O)CCc1ccc(O)cc1,CCOC(C)=O,mol_2916_solute_opt,mol_2916_solvent_opt,50,38,283.15,0.0707165519812787,4-(4-hydroxyphenyl)-2-butanone (raspberry ketone),ethyl acetate
2917.0,CC(=O)c1cnccn1,CCOC(C)=O,mol_2917_solute_opt,mol_2917_solvent_opt,50,47,268.35,-0.1440088759029964,Acetylpyrazine,ethyl acetate
2918.0,Cc1cccc(C(=O)O)c1[N+](=O)[O-],CCOC(C)=O,mol_2918_solute_opt,mol_2918_solvent_opt,50,45,283.15,-1.0230912961829397,3-methyl-2-nitrobenzoic acid,ethyl acetate
2919.0,CC1(C)CC(NCCCCCCNC2CC(C)(C)NC(C)(C)C2)CC(C)(C)N1,CCOC(C)=O,mol_2919_solute_opt,mol_2919_solvent_opt,50,31,273.15,-0.5065369662673757,"N,N′-Bis(2,2,6,6-tetramethyl-4-piperidinyl)-1,6-hexanediamine (HMBTAD)",ethyl acetate
2920.0,O=C(O)CC(=O)O,CCOC(C)=O,mol_2920_solute_opt,mol_2920_solvent_opt,50,46,278.15,-0.2758183614040108,Malonic acid,ethyl acetate
2921.0,O=C(Nc1c(F)c(F)c(F)c(F)c1F)C(=O)Nc1c(F)c(F)c(F)c(F)c1F,CCOC(C)=O,mol_2921_solute_opt,mol_2921_solvent_opt,50,38,281.1,-1.0649490063161973,"N,N′-bis(2,3,4,5,6-pentafluorophenyl)oxamide",ethyl acetate
2922.0,O=[N+]([O-])N1CN([N+](=O)[O-])CN([N+](=O)[O-])CN([N+](=O)[O-])C1,CCOC(C)=O,mol_2922_solute_opt,mol_2922_solvent_opt,50,45,322.4,-1.8805959656331035,Cyclotetramethylenetetranitramine (HMX),ethyl acetate
2923.0,O=[N+]([O-])c1ccn([N+](=O)[O-])n1,CCOC(C)=O,mol_2923_solute_opt,mol_2923_solvent_opt,50,42,278.15,0.5568587648852161,"1,3-dinitropyrazole",ethyl acetate
2924.0,Cc1ccc(C)c(O)c1,CCOC(C)=O,mol_2924_solute_opt,mol_2924_solvent_opt,50,41,282.85,0.8646715238221477,"2,5-dimethylphenol",ethyl acetate
2925.0,Cc1ccc(O)cc1C,CCOC(C)=O,mol_2925_solute_opt,mol_2925_solvent_opt,50,43,283.05,0.9841686972572214,"3,4-dimethylphenol",ethyl acetate
2926.0,CCCCCCCCC(=O)NCc1ccc(O)c(OC)c1,CCOC(C)=O,mol_2926_solute_opt,mol_2926_solvent_opt,50,31,293.2,-0.1666389218640236,Nonivamide,ethyl acetate
2927.0,CC(CO)(CO)CO,CCOC(C)=O,mol_2927_solute_opt,mol_2927_solvent_opt,50,44,283.15,-1.6719622045593103,Trimethylolethane,ethyl acetate
2928.0,O=[N+]([O-])c1c[nH]cn1,CCOC(C)=O,mol_2928_solute_opt,mol_2928_solvent_opt,50,46,278.15,-2.309624299814766,4-nitroimidazole,ethyl acetate
2929.0,NC(=O)N1c2ccccc2C=Cc2ccccc21,CCOC(C)=O,mol_2929_solute_opt,mol_2929_solvent_opt,50,42,281.35,-1.5478000669099463,Carbamazepine,ethyl acetate
2930.0,COc1cc(NS(=O)(=O)c2ccc(N)cc2)ncn1,CCOC(C)=O,mol_2930_solute_opt,mol_2930_solvent_opt,50,38,300.65,-1.9391322999904643,Sulfamonomethoxine,ethyl acetate
2931.0,O=[N+]([O-])c1cc([N+](=O)[O-])c(Cl)c(Cl)c1Cl,CCOC(C)=O,mol_2931_solute_opt,mol_2931_solvent_opt,50,49,278.15,0.0489592949441374,"2,3,4-trichloro-1,5-dinitrobenzene",ethyl acetate
2932.0,O=C1c2ccccc2-c2ccccc21,CCOC(C)=O,mol_2932_solute_opt,mol_2932_solvent_opt,50,42,278.15,0.0855882703439908,9-fluorenone,ethyl acetate
2933.0,CCC(C)(C)C(=O)O[C@H]1C[C@@H](C)C=C2C=C[C@H](C)[C@H](CC[C@@H]3C[C@@H](O)CC(=O)O3)[C@H]21,CCOC(C)=O,mol_2933_solute_opt,mol_2933_solvent_opt,50,34,279.1,-0.653766669637541,Simvastatin,ethyl acetate
2934.0,CC(=O)OCC(=O)[C@@]12N=C(C)O[C@@H]1C[C@H]1[C@@H]3CCC4=CC(=O)C=C[C@]4(C)[C@H]3[C@@H](O)C[C@@]12C,CCOC(C)=O,mol_2934_solute_opt,mol_2934_solvent_opt,50,32,293.15,-1.4692627970647083,Deflazacort,ethyl acetate
2935.0,C=C(CC(=O)O)C(=O)O,CCOC(C)=O,mol_2935_solute_opt,mol_2935_solvent_opt,50,42,283.15,-1.1181024448723942,Itaconic acid,ethyl acetate
2936.0,c1cc2ccc3cccc4ccc(c1)c2c34,CCOC(C)=O,mol_2936_solute_opt,mol_2936_solvent_opt,50,35,295.35,-0.4121546666753952,Pyrene,ethyl acetate
2937.0,C[C@H]1COc2c(N3CCN(C)CC3)c(F)cc3c(=O)c(C(=O)O)cn1c23,CCOC(C)=O,mol_2937_solute_opt,mol_2937_solvent_opt,50,34,288.15,-1.7014764674886609,Levofloxacin,ethyl acetate
2938.0,Cc1c(OCC(F)(F)F)ccnc1CS(=O)c1nc2ccccc2[nH]1,CCOC(C)=O,mol_2938_solute_opt,mol_2938_solvent_opt,50,38,283.15,-1.847218319922788,Lansoprazole,ethyl acetate
2939.0,O=C(O)CCCCCCC(=O)O,CCOC(C)=O,mol_2939_solute_opt,mol_2939_solvent_opt,50,45,283.15,-1.76116493390395,Suberic acid,ethyl acetate
2940.0,O=C(O)CC(S)C(=O)O,CCOC(C)=O,mol_2940_solute_opt,mol_2940_solvent_opt,50,47,278.15,-0.3046919013129597,Thiomalic acid,ethyl acetate
2941.0,COC(=O)C1CC(=O)C(C(=O)OC)CC1=O,CCOC(C)=O,mol_2941_solute_opt,mol_2941_solvent_opt,50,39,278.15,-1.4713187602665658,Dimethyl succinylsuccinate,ethyl acetate
2942.0,C/C=C/C(=O)O,CCOC(C)=O,mol_2942_solute_opt,mol_2942_solvent_opt,50,47,288.15,0.6861907172415823,Crotonic acid,ethyl acetate
2943.0,CC1(C)CO[P+]([O-])(Oc2c(Br)cc(Br)cc2Br)OC1,CCOC(C)=O,mol_2943_solute_opt,mol_2943_solvent_opt,50,41,293.15,-1.2920104760463154,"1,3,2-dioxaphosphorinane-5,5-dimethyl-2-(2,4,6-tribromophenoxy)-2-oxide",ethyl acetate
2944.0,O=C(O)C[C@H](O)C(=O)O,CCOC(C)=O,mol_2944_solute_opt,mol_2944_solvent_opt,50,41,278.15,-1.750738473874665,L-malic acid,ethyl acetate
2945.0,O=C1C=CC(=O)O1,CCOC(C)=O,mol_2945_solute_opt,mol_2945_solvent_opt,50,46,278.15,-1.0208454858345009,Maleic anhydride,ethyl acetate
2946.0,Cc1nc2n(c(=O)c1CCN1CCC(c3noc4cc(F)ccc34)CC1)CCCC2,CCOC(C)=O,mol_2946_solute_opt,mol_2946_solvent_opt,50,34,278.15,-1.916964260894425,Risperidone,ethyl acetate
2947.0,O=C(O)CN(CC(=O)O)CP(=O)(O)O,CCOC(C)=O,mol_2947_solute_opt,mol_2947_solvent_opt,50,37,293.15,-2.267338339128305,N-(phosphonomethyl)iminodiacetic acid,ethyl acetate
2948.0,CP(=O)(O)O,CCOC(C)=O,mol_2948_solute_opt,mol_2948_solvent_opt,50,44,288.38,-0.8731685254351853,Methylphosphonic acid,ethyl acetate
2949.0,CCOc1ccccc1C(N)=O,CCOC(C)=O,mol_2949_solute_opt,mol_2949_solvent_opt,50,38,288.15,-1.459846294382756,Ethenzamide,ethyl acetate
2950.0,NC(N)=C([N+](=O)[O-])[N+](=O)[O-],CCOC(C)=O,mol_2950_solute_opt,mol_2950_solvent_opt,50,46,296.15,-2.92779852424577,"1,1-diamino-2,2-dinitroethylene (FOX-7)",ethyl acetate
2951.0,Cc1cc(C)c(C(=O)P(=O)(c2ccccc2)c2ccccc2)c(C)c1,CCOC(C)=O,mol_2951_solute_opt,mol_2951_solvent_opt,50,31,273.15,-0.3259029998041027,"(2,4,6-trimethylbenzoyl) diphenylphosphine oxide",ethyl acetate
2952.0,CC1(C)CCC2=C(O1)c1ccccc1C(=O)C2=O,CCOC(C)=O,mol_2952_solute_opt,mol_2952_solvent_opt,50,37,298.15,-1.0587879745697475,β-lapachone,ethyl acetate
2953.0,Cn1cc([N+](=O)[O-])cn1,CCOC(C)=O,mol_2953_solute_opt,mol_2953_solvent_opt,50,43,283.15,-0.8781019657991439,1-methyl-4-nitropyrazole,ethyl acetate
2954.0,O=C1NC(=O)C2C3C=CC(C3)C12,CCOC(C)=O,mol_2954_solute_opt,mol_2954_solvent_opt,50,45,278.15,-1.063896232742906,"5-norbornene-2,3-dicarboximide",ethyl acetate
2955.0,O=C1CCCCCN1,CCOC(C)=O,mol_2955_solute_opt,mol_2955_solvent_opt,50,43,278.85,0.0760710556402737,Caprolactam,ethyl acetate
2956.0,Oc1ccc(/C=C/c2cc(O)cc(O)c2)cc1,CCOC(C)=O,mol_2956_solute_opt,mol_2956_solvent_opt,50,39,278.2,-1.1866183256473253,Trans-resveratrol,ethyl acetate
2957.0,C[C@@H]1O[C@@H](OC[C@H]2O[C@@H](Oc3cc(O)c4c(=O)cc(-c5ccccc5O)oc4c3)[C@H](O)[C@@H](O)[C@@H]2O)[C@H](O)[C@H](O)[C@H]1O,CCOC(C)=O,mol_2957_solute_opt,mol_2957_solvent_opt,50,28,288.2,-4.841453449699233,Apigenin 7-O-rhamnosylglucoside,ethyl acetate
2958.0,O=c1cc(-c2ccc(O)cc2)oc2cc(O)cc(O)c12,CCOC(C)=O,mol_2958_solute_opt,mol_2958_solvent_opt,50,39,288.2,-2.751978941406914,Apigenin,ethyl acetate
2959.0,C[C@@H]1CC[C@@]2(OC1)O[C@H]1C[C@H]3[C@@H]4CC=C5C[C@@H](O)CC[C@]5(C)[C@H]4CC[C@]3(C)[C@H]1[C@@H]2C,CCOC(C)=O,mol_2959_solute_opt,mol_2959_solvent_opt,50,33,300.65,-1.6133868370610929,Diosgenin,ethyl acetate
2960.0,Brc1sc(Br)c(Br)c1Br,CCOC(C)=O,mol_2960_solute_opt,mol_2960_solvent_opt,50,46,278.05,-1.0703963306291122,"2,3,4,5-tetrabromothiophene",ethyl acetate
2961.0,CN1c2ccccc2C(=O)N2CCc3c([nH]c4ccccc34)[C@H]21,CCOC(C)=O,mol_2961_solute_opt,mol_2961_solvent_opt,50,37,283.2,-2.854244234819583,Evodiamine,ethyl acetate
2962.0,O=C(O)CCCCCCCCCCC(=O)O,CCOC(C)=O,mol_2962_solute_opt,mol_2962_solvent_opt,50,39,288.15,-1.90794454587422,Dodecanedioic acid,ethyl acetate
2963.0,O=C(O)C(=O)O,CCOC(C)=O,mol_2963_solute_opt,mol_2963_solvent_opt,50,44,288.15,-1.3485702046317043,Oxalic acid,ethyl acetate
2964.0,O=C(O)CCC(=O)O,CCOC(C)=O,mol_2964_solute_opt,mol_2964_solvent_opt,50,45,288.15,-1.866170358352532,Succinic acid,ethyl acetate
2965.0,O=C(O)CCCC(=O)O,CCOC(C)=O,mol_2965_solute_opt,mol_2965_solvent_opt,50,41,288.15,-0.0135427841155405,Glutaric acid,ethyl acetate
2966.0,O=C(O)CCCCC(=O)O,CCOC(C)=O,mol_2966_solute_opt,mol_2966_solvent_opt,50,40,288.15,-1.530342043077288,Adipic acid,ethyl acetate
2967.0,O=C(O)CCCCCC(=O)O,CCOC(C)=O,mol_2967_solute_opt,mol_2967_solvent_opt,50,39,288.15,-0.6092898076900592,Pimelic acid,ethyl acetate
2968.0,O=C(O)CCCCCCCC(=O)O,CCOC(C)=O,mol_2968_solute_opt,mol_2968_solvent_opt,50,43,288.15,-1.02405811615645,Azelaic acid,ethyl acetate
2969.0,O=C(O)CCCCCCCCC(=O)O,CCOC(C)=O,mol_2969_solute_opt,mol_2969_solvent_opt,50,43,288.15,-1.4957811587395813,Sebacic acid,ethyl acetate
2970.0,CC(=O)S[C@@H]1CC2=CC(=O)CC[C@]2(C)[C@H]2CC[C@@]3(C)[C@@H](CC[C@@]34CCC(=O)O4)[C@H]12,CCOC(C)=O,mol_2970_solute_opt,mol_2970_solvent_opt,50,32,278.85,-0.72040582351112,Spironolactone,ethyl acetate
2971.0,C/C=C/C=C/C(=O)O,CCOC(C)=O,mol_2971_solute_opt,mol_2971_solvent_opt,50,44,285.15,-0.5488573574110437,Sorbic acid,ethyl acetate
2972.0,O=c1c(-c2ccc(O)cc2)coc2cc(O[C@@H]3O[C@H](CO)[C@@H](O)[C@H](O)[C@H]3O)ccc12,CCOC(C)=O,mol_2972_solute_opt,mol_2972_solvent_opt,50,28,283.2,-4.253852024850524,Daidzin,ethyl acetate
2973.0,O=c1c(-c2ccc(O)cc2)coc2cc(O[C@@H]3O[C@H](CO)[C@@H](O)[C@H](O)[C@H]3O)cc(O)c12,CCOC(C)=O,mol_2973_solute_opt,mol_2973_solvent_opt,50,33,283.2,-4.916450267156508,Genistin,ethyl acetate
2974.0,O=C(O)CCCCCCCCCCCC(=O)O,CCOC(C)=O,mol_2974_solute_opt,mol_2974_solvent_opt,50,43,283.15,-2.1269619820319035,Tridecanedioic acid,ethyl acetate
2975.0,O=[N+]([O-])c1cccc2cccc([N+](=O)[O-])c12,CCOC(C)=O,mol_2975_solute_opt,mol_2975_solvent_opt,50,41,273.15,-1.360290098696468,"1,8-dinitronaphthalene",ethyl acetate
2976.0,O=C(NC[C@H]1CN(c2ccc(N3CCOCC3=O)cc2)C(=O)O1)c1ccc(Cl)s1,CCOC(C)=O,mol_2976_solute_opt,mol_2976_solvent_opt,50,35,278.15,-3.2688335663949,Rivaroxaban,ethyl acetate
2977.0,O=C1NC(=O)c2ccccc21,CCOC(C)=O,mol_2977_solute_opt,mol_2977_solvent_opt,50,46,283.15,-1.393637977837673,Phthalimide,ethyl acetate
2978.0,COc1ccc2nc(S(=O)Cc3ncc(C)c(OC)c3C)[nH]c2c1,CCOC(C)=O,mol_2978_solute_opt,mol_2978_solvent_opt,50,43,278.15,-1.9899640272585173,Omeprazole,ethyl acetate
2979.0,CCOC(=O)Cc1c(C(=O)OCC)sc(N)c1C#N,CCOC(C)=O,mol_2979_solute_opt,mol_2979_solvent_opt,50,45,273.15,-0.5945504080940242,Ethyl 5-amino-4-cyano-3-(2-ethoxy-2-oxoethyl)-2-thiophenecarboxylate,ethyl acetate
2980.0,CNC(=O)NC,CCOC(C)=O,mol_2980_solute_opt,mol_2980_solvent_opt,50,47,288.15,-0.4943224950648895,"1,3-dimethylurea",ethyl acetate
2981.0,O=C1c2cccc(Cl)c2C(=O)N1c1ccccc1,CCOC(C)=O,mol_2981_solute_opt,mol_2981_solvent_opt,50,37,288.15,-1.663686804549554,3-chloro-N-phenylphthalimide,ethyl acetate
2982.0,Nc1ccc(N2CCOCC2=O)cc1,CCOC(C)=O,mol_2982_solute_opt,mol_2982_solvent_opt,50,34,278.15,-2.2342716777583465,4-(4-aminophenyl)-3-morpholinone,ethyl acetate
2983.0,CC(=O)O[C@H]1CC[C@@]2(C)C(=CC[C@@H]3[C@@H]2CC[C@]2(C)C(=O)CC[C@@H]32)C1,CCOC(C)=O,mol_2983_solute_opt,mol_2983_solvent_opt,50,35,273.15,-0.5620674977512599,Dehydroepiandrosterone acetate,ethyl acetate
2984.0,N=C(Nc1ccccc1)Nc1ccccc1,CCOC(C)=O,mol_2984_solute_opt,mol_2984_solvent_opt,50,38,273.15,-0.5224868433907371,"1,3-diphenylguanidine",ethyl acetate
2985.0,O=[N+]([O-])c1ccc(O)c2ncccc12,CCOC(C)=O,mol_2985_solute_opt,mol_2985_solvent_opt,50,47,278.15,-1.4499948495851738,5-nitro-8-hydroxyquinoline,ethyl acetate
2986.0,COc1c(O)cc2c(c1O)[C@@H]1O[C@H](CO)[C@@H](O)[C@H](O)[C@H]1OC2=O,CCOC(C)=O,mol_2986_solute_opt,mol_2986_solvent_opt,50,39,298.15,-2.635423550491478,Bergenin,ethyl acetate
2987.0,Cc1cccc([N+](=O)[O-])c1N,CCOC(C)=O,mol_2987_solute_opt,mol_2987_solvent_opt,50,42,278.15,-0.0187529081678444,2-methyl-6-nitroaniline,ethyl acetate
2988.0,O=S(=O)(c1ccc(O)cc1)c1ccccc1O,CCOC(C)=O,mol_2988_solute_opt,mol_2988_solvent_opt,50,43,278.15,-0.3784772531568383,"2,4′-dihydroxydiphenyl sulfone",ethyl acetate
2989.0,Nc1ccc([N+](=O)[O-])cc1[N+](=O)[O-],CCOC(C)=O,mol_2989_solute_opt,mol_2989_solvent_opt,50,46,278.15,-0.9116441448982094,"2,4-dinitroaniline",ethyl acetate
2990.0,Cc1cc(C(=O)O)ccc1[N+](=O)[O-],CCOC(C)=O,mol_2990_solute_opt,mol_2990_solvent_opt,50,42,283.15,-0.9546733238767268,3-methyl-4-nitrobenzoic acid,ethyl acetate
2991.0,CO[C@@]1(NC(=O)Cc2cccs2)C(=O)N2C(C(=O)O)=C(COC(N)=O)CS[C@@H]21,CCOC(C)=O,mol_2991_solute_opt,mol_2991_solvent_opt,50,35,278.15,-2.6221811100791763,Cefoxitin acid,ethyl acetate
2992.0,CC1=NN(c2ccc(C)cc2)C(=O)C1,CCOC(C)=O,mol_2992_solute_opt,mol_2992_solvent_opt,50,38,278.15,-0.7416980149655897,"2,4-dihydro-5-methyl-2-(4-methylphenyl)-3H-pyrazol-3-one",ethyl acetate
2993.0,O=C(O)c1ccccc1Nc1ccccc1,CCOC(C)=O,mol_2993_solute_opt,mol_2993_solvent_opt,50,41,283.15,-0.900916200944963,N-phenylanthranilic acid,ethyl acetate
2994.0,Cc1ccc(S(C)(=O)=O)cc1,CCOC(C)=O,mol_2994_solute_opt,mol_2994_solvent_opt,50,41,278.15,-0.1682773904870998,1-methyl-4-(methylsulfonyl)benzene,ethyl acetate
2995.0,C=CC(=O)N1CCC[C@@H](n2nc(-c3ccc(Oc4ccccc4)cc3)c3c(N)ncnc32)C1,CCOC(C)=O,mol_2995_solute_opt,mol_2995_solvent_opt,50,34,278.15,-1.4864146131327411,Ibrutinib,ethyl acetate
2996.0,O=Cc1ccc([N+](=O)[O-])cc1,CCOC(C)=O,mol_2996_solute_opt,mol_2996_solvent_opt,50,45,273.15,-0.4578220017757748,4-nitrobenzaldehyde,ethyl acetate
2997.0,Nc1nnc[nH]1,CCOC(C)=O,mol_2997_solute_opt,mol_2997_solvent_opt,50,47,283.15,-1.816651065782932,"3-amino-1,2,4-triazole",ethyl acetate
2998.0,CC(C)(C)[C@H](O)[C@H](Cc1ccc(Cl)cc1)n1cncn1,CCOC(C)=O,mol_2998_solute_opt,mol_2998_solvent_opt,50,40,278.15,-1.0846947536936848,Paclobutrazol,ethyl acetate
2999.0,Cn1cnc([N+](=O)[O-])c1Cl,CCOC(C)=O,mol_2999_solute_opt,mol_2999_solvent_opt,50,45,283.15,-1.053495388955917,5-chloro-1-methyl-4-nitroimidazole,ethyl acetate
3000.0,CC(C)C(=O)OCC(=O)[C@@]12O[C@H](C3CCCCC3)O[C@@H]1C[C@H]1[C@@H]3CCC4=CC(=O)C=C[C@]4(C)[C@H]3[C@@H](O)C[C@@]12C,CCOC(C)=O,mol_3000_solute_opt,mol_3000_solvent_opt,50,27,278.15,-0.2471564303233288,Ciclesonide,ethyl acetate
3001.0,COc1cc(Cl)nc(N)n1,CCOC(C)=O,mol_3001_solute_opt,mol_3001_solvent_opt,50,44,273.15,-1.2381671525286,2-amino-4-chloro-6-methoxypyrimidine,ethyl acetate
3002.0,Cc1cc([N+](=O)[O-])ccc1N,CCOC(C)=O,mol_3002_solute_opt,mol_3002_solvent_opt,50,43,278.15,-0.1614388529618909,2-methyl-4-nitroaniline,ethyl acetate
3003.0,O=Cc1cccc([N+](=O)[O-])c1,CCOC(C)=O,mol_3003_solute_opt,mol_3003_solvent_opt,50,44,273.15,0.2548151995836235,3-nitrobenzaldehyde,ethyl acetate
3004.0,O=Cc1ccc(C=O)cc1,CCOC(C)=O,mol_3004_solute_opt,mol_3004_solvent_opt,50,44,273.15,-0.5134176023695688,Terephthaldialdehyde,ethyl acetate
3005.0,Nc1ccc([N+](=O)[O-])cc1N,CCOC(C)=O,mol_3005_solute_opt,mol_3005_solvent_opt,50,45,283.15,-1.4043189700307068,"4-nitro-1,2-phenylenediamine",ethyl acetate
3006.0,Nc1cc(Cl)ccc1C(=O)O,CCOC(C)=O,mol_3006_solute_opt,mol_3006_solvent_opt,50,45,278.15,-0.8795534154302799,2-amino-4-chlorobenzoic acid,ethyl acetate
3007.0,Clc1ccc2c(c1)Nc1ccccc1S2,CCOC(C)=O,mol_3007_solute_opt,mol_3007_solvent_opt,50,38,283.15,-0.7838066746180141,2-chlorophenothiazine,ethyl acetate
3008.0,COc1cc(CO)ccc1O,CCOC(C)=O,mol_3008_solute_opt,mol_3008_solvent_opt,50,38,293.15,-0.7373063759082751,Vanillyl alcohol,ethyl acetate
3009.0,CC(C)(C)C(O)(CCc1ccc(Cl)cc1)Cn1cncn1,CCOC(C)=O,mol_3009_solute_opt,mol_3009_solvent_opt,50,34,278.15,-0.5832612939138948,Tebuconazole,ethyl acetate
3010.0,CC(C)c1ncc[nH]1,CCOC(C)=O,mol_3010_solute_opt,mol_3010_solvent_opt,50,46,278.15,-0.2435248611308241,2-isopropylimidazole,ethyl acetate
3011.0,Nc1ccc(N)c([N+](=O)[O-])c1,CCOC(C)=O,mol_3011_solute_opt,mol_3011_solvent_opt,50,44,283.15,-0.6673317104800379,2-nitro-p-phenylenediamine,ethyl acetate
3012.0,Cc1ccc(N)c([N+](=O)[O-])c1,CCOC(C)=O,mol_3012_solute_opt,mol_3012_solvent_opt,50,42,278.15,-0.0665373861326656,4-methyl-2-nitroaniline,ethyl acetate
3013.0,Cc1cc(C)[nH]n1,CCOC(C)=O,mol_3013_solute_opt,mol_3013_solvent_opt,50,47,283.15,-0.2558311766175913,"3,5-dimethylpyrazole",ethyl acetate
3014.0,Cc1c(C(=O)O)cccc1[N+](=O)[O-],CCOC(C)=O,mol_3014_solute_opt,mol_3014_solvent_opt,50,42,283.15,-0.4772618951114093,2-methyl-3-nitrobenzoic acid,ethyl acetate
3015.0,NC(=O)c1cnccn1,CCOC(C)=O,mol_3015_solute_opt,mol_3015_solvent_opt,50,48,278.15,-1.7773828677222014,Pyrazinamide,ethyl acetate
3016.0,O=C(Nc1ccccc1-c1ccc(Cl)cc1)c1cccnc1Cl,CCOC(C)=O,mol_3016_solute_opt,mol_3016_solvent_opt,50,40,288.15,-1.1036355998639165,Boscalid,ethyl acetate
3017.0,c1ccc(-c2nnn[nH]2)cc1,CCOC(C)=O,mol_3017_solute_opt,mol_3017_solvent_opt,50,46,283.15,-1.18425976884001,5-phenyltetrazole,ethyl acetate
3018.0,S=c1[nH]c2ccccc2s1,CCOC(C)=O,mol_3018_solute_opt,mol_3018_solvent_opt,50,46,273.15,-0.529122720819403,2-mercaptobenzothiazole,ethyl acetate
3019.0,Nc1cccc2c1CN(C1CCC(=O)NC1=O)C2=O,CCOC(C)=O,mol_3019_solute_opt,mol_3019_solvent_opt,50,39,293.15,-2.885988332841134,Lenalidomide,ethyl acetate
3020.0,Cc1c(C(N)=O)cc([N+](=O)[O-])cc1[N+](=O)[O-],CCOC(C)=O,mol_3020_solute_opt,mol_3020_solvent_opt,50,43,283.15,-1.2373467813852836,Dinitolmide,ethyl acetate
3021.0,O=C1NS(=O)(=O)c2ccccc21,CCOC(C)=O,mol_3021_solute_opt,mol_3021_solvent_opt,50,43,278.15,-1.032113769225244,Saccharin,ethyl acetate
3022.0,Cc1c([N+](=O)[O-])c(C)c([N+](=O)[O-])c(C(C)(C)C)c1[N+](=O)[O-],CCOC(C)=O,mol_3022_solute_opt,mol_3022_solvent_opt,50,38,278.15,0.0407627201747168,Musk xylene,ethyl acetate
3023.0,Cn1nnc2c(C(N)=O)ncn2c1=O,CCOC(C)=O,mol_3023_solute_opt,mol_3023_solvent_opt,50,38,273.15,-3.0740256020444523,Temozolomide,ethyl acetate
3024.0,COC(=O)Nc1nc2ccc(Sc3ccccc3)cc2[nH]1,CCOC(C)=O,mol_3024_solute_opt,mol_3024_solvent_opt,50,40,273.15,-2.554105595146193,Fenbendazole,ethyl acetate
3025.0,O=P1(O)Oc2ccc3ccccc3c2-c2c(ccc3ccccc23)O1,CCOC(C)=O,mol_3025_solute_opt,mol_3025_solvent_opt,50,38,288.15,-2.5311569991265044,"1,1′-binaphthyl-2,2′-diyl hydrogenphosphate",ethyl acetate