pair_id,SMILES_Solute,SMILES_Solvent,Solute_name,Solvent_name,Total_conformers,Filtered_conformers,Temperature_K,LogS,Compound_Name,Solvent
3390.0,CO/C=C(/C(=O)OC)c1ccccc1Oc1cc(Oc2ccccc2C#N)ncn1,CCOC(C)=O,mol_3390_solute_opt,mol_3390_solvent_opt,50,34,288.15,-0.5855511413806161,Azoxystrobin,ethyl acetate
3391.0,CC1(C)COP(=O)(Oc2cccc(OP3(=O)OCC(C)(C)CO3)c2)OC1,CCOC(C)=O,mol_3391_solute_opt,mol_3391_solvent_opt,50,35,293.15,-2.087093128299468,"Resorcinol bis(cyclic 2,2-dimethyl-1,3-propanediol phosphate)",ethyl acetate
3392.0,Cc1ccccc1S(N)(=O)=O,CCOC(C)=O,mol_3392_solute_opt,mol_3392_solvent_opt,50,41,283.15,-0.2658358426963539,o-Toluenesulfonamide,ethyl acetate
3393.0,CC1(C)O[C@H]2CC(=O)OC[C@]23[C@H]2CC[C@@]4(C)[C@H](c5ccoc5)OC(=O)[C@H]5O[C@]54[C@]2(C)C(=O)C[C@@H]13,CCOC(C)=O,mol_3393_solute_opt,mol_3393_solvent_opt,50,38,283.2,-2.1115737049652936,Limonin,ethyl acetate
3394.0,Cc1ccc(NC(=O)/C(=C/Cl)Sc2ccccc2)cc1,CCOC(C)=O,mol_3394_solute_opt,mol_3394_solvent_opt,50,40,278.15,-0.7018865164479836,N-(4-methylphenyl-z-3-chloro-2-(phenylthio)propenamide,ethyl acetate
3395.0,Nc1ccc(S(=O)(=O)Nc2ccc(Cl)nn2)cc1,CCOC(C)=O,mol_3395_solute_opt,mol_3395_solvent_opt,50,44,283.15,-0.8477188762528591,Sulfachloropyridazine,ethyl acetate
3396.0,COc1ccc(C(=O)N2CCCC2=O)cc1,CCOC(C)=O,mol_3396_solute_opt,mol_3396_solvent_opt,50,38,273.15,-0.7970036797665271,Aniracetam,ethyl acetate
3397.0,O=C(O)Cc1ccccc1Cl,CCOC(C)=O,mol_3397_solute_opt,mol_3397_solvent_opt,50,44,273.15,0.3472061864269802,2-chlorophenylacetic acid,ethyl acetate
3398.0,CC(=O)c1ccc([N+](=O)[O-])cc1,CCOC(C)=O,mol_3398_solute_opt,mol_3398_solvent_opt,50,41,278.15,0.066238569935099,1-(4-nitrophenyl)ethanone,ethyl acetate
3399.0,CC(=O)c1cccc([N+](=O)[O-])c1,CCOC(C)=O,mol_3399_solute_opt,mol_3399_solvent_opt,50,39,278.15,-0.0534165261472074,1-(3-nitrophenyl)ethanone,ethyl acetate
3400.0,O=C(c1ccccc1)c1ccccc1,CCOC(C)=O,mol_3400_solute_opt,mol_3400_solvent_opt,50,44,278.15,0.6100511053823588,Benzophenone,ethyl acetate
3401.0,Nc1nc(Cl)cc(Cl)n1,CCOC(C)=O,mol_3401_solute_opt,mol_3401_solvent_opt,50,42,278.15,-1.3185911650145226,"2-amino-4,6-dichoropyrimidine",ethyl acetate
3402.0,CCOC(=O)[C@H](CCc1ccccc1)N[C@@H](C)C(=O)O,CCOC(C)=O,mol_3402_solute_opt,mol_3402_solvent_opt,50,36,273.15,-1.0217285312436355,Enalapril hydride,ethyl acetate
3403.0,COCC(=O)Nc1c(I)c(C(=O)NCC(O)CO)c(I)c(C(=O)N(C)CC(O)CO)c1I,CCOC(C)=O,mol_3403_solute_opt,mol_3403_solvent_opt,50,27,273.15,-3.845231207754954,Iopromide,ethyl acetate
3404.0,O=c1[nH]cc(F)c(=O)[nH]1,CCOC(C)=O,mol_3404_solute_opt,mol_3404_solvent_opt,50,47,291.1,-2.376337702300228,5-fluorouracil,ethyl acetate
3405.0,COc1ccc2c(c1)c(CC(=O)O)c(C)n2C(=O)c1ccc(Cl)cc1,CCOC(C)=O,mol_3405_solute_opt,mol_3405_solvent_opt,50,35,298.15,-0.9432868260285004,Indomethacin,ethyl acetate
3406.0,COc1ccc2cc([C@H](C)C(=O)O)ccc2c1,CCOC(C)=O,mol_3406_solute_opt,mol_3406_solvent_opt,50,39,298.15,-0.5953393932266676,(S)-Naproxen,ethyl acetate
3407.0,N#Cc1ccc([N+](=O)[O-])cc1,CCOC(C)=O,mol_3407_solute_opt,mol_3407_solvent_opt,50,47,278.15,-0.3571873129929611,4-nitrobenzonitrile,ethyl acetate
3408.0,NC(=O)c1cccnc1,CCOC(C)=O,mol_3408_solute_opt,mol_3408_solvent_opt,50,39,283.15,-1.079712219508546,Nicotinamide,ethyl acetate
3409.0,O=C(O)c1cc2ccccc2cc1O,CCOC(C)=O,mol_3409_solute_opt,mol_3409_solvent_opt,50,45,293.15,-0.6352287326220405,3-hydroxy-2-naphthoic acid,ethyl acetate
3410.0,CCOC(=O)C1=C[C@]2(CC)CCCN3CCc4c(n1c1ccccc41)[C@@H]32,CCOC(C)=O,mol_3410_solute_opt,mol_3410_solvent_opt,50,28,283.15,-1.3921699376169212,Vinpocetine,ethyl acetate
3411.0,CC[C@@H](C(N)=O)N1CCCC1=O,CCOC(C)=O,mol_3411_solute_opt,mol_3411_solvent_opt,50,42,283.15,-1.3551904231850318,Levetiracetam,ethyl acetate
3412.0,NNC(=O)c1ccncc1,CCOC(C)=O,mol_3412_solute_opt,mol_3412_solvent_opt,50,45,283.15,-1.9947333870483663,Isoniazid,ethyl acetate
3413.0,N#CCc1ccc([N+](=O)[O-])cc1,CCOC(C)=O,mol_3413_solute_opt,mol_3413_solvent_opt,50,46,278.15,0.1609389906288071,p-nitrophenylacetonitrile,ethyl acetate
3414.0,CCCN(CCC)S(=O)(=O)c1ccc(C(=O)O)cc1,CCOC(C)=O,mol_3414_solute_opt,mol_3414_solvent_opt,50,37,283.15,-1.400881738488545,Probenecid,ethyl acetate
3415.0,Cc1nc(C)c(C)nc1C,CCOC(C)=O,mol_3415_solute_opt,mol_3415_solvent_opt,50,40,273.15,0.0465254925211229,Tetramethylpyrazine,ethyl acetate
3416.0,COc1c(N2CCNC(C)C2)c(F)cc2c(=O)c(C(=O)O)cn(C3CC3)c12,CCOC(C)=O,mol_3416_solute_opt,mol_3416_solvent_opt,50,24,273.15,-1.4685733227276443,Gatifloxacin,ethyl acetate
3417.0,Nc1cc([N+](=O)[O-])ccc1Cl,CCOC(C)=O,mol_3417_solute_opt,mol_3417_solvent_opt,50,48,273.15,-0.0605514871929326,2-chloro-5-nitroaniline,ethyl acetate
3418.0,FC(F)(F)c1cccnc1Cl,CCOC(C)=O,mol_3418_solute_opt,mol_3418_solvent_opt,50,47,263.15,0.6719532803205268,2-chloro-3-(trifluoromethyl)pyridine,ethyl acetate
3419.0,C[C@@H](O)[C@H]1C(=O)N2C(C(=O)[O-])=C(SC3Cn4cnc[n+]4C3)[C@H](C)[C@H]12,CCOC(C)=O,mol_3419_solute_opt,mol_3419_solvent_opt,50,37,283.15,-3.2679136889075866,Biapenem,ethyl acetate
3420.0,CC#C[C@]1(O)CC[C@H]2[C@@H]3CCC4=CC(=O)CCC4=C3[C@@H](c3ccc(N(C)C)cc3)C[C@@]21C,CCOC(C)=O,mol_3420_solute_opt,mol_3420_solvent_opt,50,32,273.15,-2.9658940632296087,Mifepristone,ethyl acetate
3421.0,Nc1nc2c(ncn2COC(CO)CO)c(=O)[nH]1,CCOC(C)=O,mol_3421_solute_opt,mol_3421_solvent_opt,50,37,278.15,-5.599188953539808,Ganciclovir,ethyl acetate
3422.0,CC(C)N1C(=O)N(c2ccccc2)CSC1=NC(C)(C)C,CCOC(C)=O,mol_3422_solute_opt,mol_3422_solvent_opt,50,35,273.15,-0.3911632727807471,Buprofezin,ethyl acetate
3423.0,CC(=O)N(CC(O)CO)c1c(I)c(C(=O)NCC(O)CO)c(I)c(C(=O)NCC(O)CO)c1I,CCOC(C)=O,mol_3423_solute_opt,mol_3423_solvent_opt,50,31,283.15,-2.885217411179681,Iohexol,ethyl acetate
3424.0,NC(=O)c1ccc(N)cc1,CCOC(C)=O,mol_3424_solute_opt,mol_3424_solvent_opt,50,37,283.15,-2.252542584632287,4-aminobenzamide,ethyl acetate
3425.0,N#CCC(N)=O,CCOC(C)=O,mol_3425_solute_opt,mol_3425_solvent_opt,50,44,273.15,-1.343740484522721,2-cyanoacetamide,ethyl acetate
3426.0,Cc1ccc2cc(C)ccc2c1,CCOC(C)=O,mol_3426_solute_opt,mol_3426_solvent_opt,50,42,287.56,-0.3410222390525078,"2,6-Dimethylnaphthalene ",ethyl acetate
3427.0,Nc1cccc2c(N)cccc12,CCOC(C)=O,mol_3427_solute_opt,mol_3427_solvent_opt,50,43,273.15,-1.370528632599274,"1,5-Naphthalenediamine",ethyl acetate
3428.0,Nc1cccc2cccc(N)c12,CCOC(C)=O,mol_3428_solute_opt,mol_3428_solvent_opt,50,44,273.15,-0.0605514871929326,"1,8-Naphthalenediamine",ethyl acetate
3429.0,Cc1cccc(C(=O)O)c1N,CCOC(C)=O,mol_3429_solute_opt,mol_3429_solvent_opt,50,43,278.15,-0.5012284574861646,2-amino-3-methylbenzoic acid,ethyl acetate
3430.0,N#Cc1cccc([N+](=O)[O-])c1C#N,CCOC(C)=O,mol_3430_solute_opt,mol_3430_solvent_opt,50,48,278.15,-0.7227137169343971,3-nitrophthalonitrile,ethyl acetate
3431.0,Cc1[nH]nc2cc([N+](=O)[O-])ccc12,CCOC(C)=O,mol_3431_solute_opt,mol_3431_solvent_opt,50,47,278.15,-0.7708014399152552,3-methyl-6-nitroindazole,ethyl acetate
3432.0,O=C(O)Cc1c[nH]c2ccccc12,CCOC(C)=O,mol_3432_solute_opt,mol_3432_solvent_opt,50,40,278.15,-3.445100509474962,Indole-3-acetic acid,ethyl acetate
3433.0,CN(C)/C=C/C(=O)c1cccnc1,CCOC(C)=O,mol_3433_solute_opt,mol_3433_solvent_opt,50,42,278.15,-0.85926422713254,(2E)-1-(3-pyridyl)-3-(dimethylamino)-2-propen-1-one,ethyl acetate
3434.0,NC(=O)c1ccc([N+](=O)[O-])cc1,CCOC(C)=O,mol_3434_solute_opt,mol_3434_solvent_opt,50,46,283.15,-1.6770870689439614,p-Nitrobenzamide,ethyl acetate
3435.0,Sc1nc2ccccc2[nH]1,CCOC(C)=O,mol_3435_solute_opt,mol_3435_solvent_opt,50,44,278.15,-1.6844003783747028,2-mercaptobenzimidazole,ethyl acetate
3436.0,NS(=O)(=O)c1cc2c(cc1Cl)NCNS2(=O)=O,CCOC(C)=O,mol_3436_solute_opt,mol_3436_solvent_opt,50,48,283.15,-2.059963036381704,Hydrochlorothiazide,ethyl acetate
3437.0,O=Cc1cc([N+](=O)[O-])ccc1O,CCOC(C)=O,mol_3437_solute_opt,mol_3437_solvent_opt,50,46,273.15,-0.7051719638085943,5-nitrosalicylaldehyde,ethyl acetate
3438.0,N#CCc1ccccc1[N+](=O)[O-],CCOC(C)=O,mol_3438_solute_opt,mol_3438_solvent_opt,50,44,278.15,0.1909597950406313,o-nitrophenylacetonitrile,ethyl acetate
3439.0,N[C@@H](Cc1ccc(O)cc1)C(=O)O,CCOC(C)=O,mol_3439_solute_opt,mol_3439_solvent_opt,50,45,283.15,-1.6706903441642906,L-tyrosine,ethyl acetate
3440.0,N[C@H](Cc1c[nH]c2ccccc12)C(=O)O,CCOC(C)=O,mol_3440_solute_opt,mol_3440_solvent_opt,50,36,283.15,-2.60756206469826,D-tryptophan,ethyl acetate
3441.0,OCc1ccc(O[C@@H]2O[C@H](CO)[C@@H](O)[C@H](O)[C@H]2O)cc1,CCOC(C)=O,mol_3441_solute_opt,mol_3441_solvent_opt,50,31,273.15,-1.7374704436905708,Gastrodin,ethyl acetate
3442.0,CC(=NC#N)N(C)Cc1ccc(Cl)nc1,CCOC(C)=O,mol_3442_solute_opt,mol_3442_solvent_opt,50,41,278.15,-0.9519923649032308,Acetamiprid,ethyl acetate
3443.0,O=C1Cc2ccccc2N1,CCOC(C)=O,mol_3443_solute_opt,mol_3443_solvent_opt,50,48,287.15,0.2264685548931053,2-oxindole,ethyl acetate
3444.0,NC(=O)c1ccccc1N,CCOC(C)=O,mol_3444_solute_opt,mol_3444_solvent_opt,50,44,273.15,-0.2308501319727744,2-aminobenzamide,ethyl acetate
3446.0,NS(=O)(=O)c1ccccc1,CCOC(C)=O,mol_3446_solute_opt,mol_3446_solvent_opt,50,47,273.15,-0.4525436352823647,Benzenesulfonamide,ethyl acetate
3447.0,Fc1c(I)c(F)c(I)c(F)c1I,CCOC(C)=O,mol_3447_solute_opt,mol_3447_solvent_opt,50,43,290.15,-2.302783835376998,"1,3,5-trifluoro-2,4,6-triiodobenzene",ethyl acetate
3448.0,Nc1nnn[nH]1,CCOC(C)=O,mol_3448_solute_opt,mol_3448_solvent_opt,50,45,283.15,-2.286289970455601,5-aminotetrazole,ethyl acetate
3449.0,CC(C)=CCC[C@@H](C)[C@H]1CC[C@@]2(C)C3=C(CC[C@]12C)[C@@]1(C)CC[C@H](O)C(C)(C)[C@@H]1CC3,CCOC(C)=O,mol_3449_solute_opt,mol_3449_solvent_opt,50,28,277.67,-2.1002582781725283,Lanosterol,ethyl acetate
3450.0,Cc1cnc(C(=O)O)cn1,CCOC(C)=O,mol_3450_solute_opt,mol_3450_solvent_opt,50,41,273.15,-4.344296880596308,5-methyl-2-pyrazinecarboxylic acid,ethyl acetate
3451.0,Nc1ccc(S(N)(=O)=O)cc1,CCOC(C)=O,mol_3451_solute_opt,mol_3451_solvent_opt,50,42,278.15,-4.027679906032588,Sulfanilamide,ethyl acetate
3452.0,c1cc(-n2c3ccccc3c3ccccc32)cc(-n2c3ccccc3c3ccccc32)c1,CCOC(C)=O,mol_3452_solute_opt,mol_3452_solvent_opt,50,31,283.15,-1.353343637588967,"1,3-bis(9-carbazolyl)benzene",ethyl acetate
3453.0,N=C(N)NC(N)=S,CCOC(C)=O,mol_3453_solute_opt,mol_3453_solvent_opt,50,42,283.15,-1.6926106446438645,Amidinothiourea,ethyl acetate
3454.0,N[C@@H](CO)C(=O)O,CCOC(C)=O,mol_3454_solute_opt,mol_3454_solvent_opt,50,45,278.15,-3.601704659235588,L-serine,ethyl acetate
3455.0,CN1CCN(c2c(F)cc3c(=O)c(C(=O)O)cn4c3c2OCN4C)CC1,CCOC(C)=O,mol_3455_solute_opt,mol_3455_solvent_opt,50,30,283.15,-2.79814935466175,Marbofloxacin,ethyl acetate
3456.0,Cc1c(C(=O)O)cc([N+](=O)[O-])cc1[N+](=O)[O-],CCOC(C)=O,mol_3456_solute_opt,mol_3456_solvent_opt,50,42,288.15,-0.60266993517921,"3,5-dinitro-2-methylbenzoic acid",ethyl acetate
3457.0,NCCCCCC(=O)O,CCOC(C)=O,mol_3457_solute_opt,mol_3457_solvent_opt,50,40,283.15,-2.8201910157053782,Aminocaproic acid,ethyl acetate
3458.0,N[C@@H](Cc1c[nH]c2ccccc12)C(=O)O,CCOC(C)=O,mol_3458_solute_opt,mol_3458_solvent_opt,50,45,278.15,-3.379848960685155,L-tryptophan,ethyl acetate
3459.0,O=[N+]([O-])c1ncccc1O,CCOC(C)=O,mol_3459_solute_opt,mol_3459_solvent_opt,50,44,278.15,0.1002302178052835,3-hydroxy-2-nitropyridine,ethyl acetate
3460.0,Cc1nc(N)nc(N)n1,CCOC(C)=O,mol_3460_solute_opt,mol_3460_solvent_opt,50,39,283.15,-2.157852398445229,Acetoguanamine,ethyl acetate
3461.0,COC(=O)c1ccc(C(=O)OC)cc1,CCOC(C)=O,mol_3461_solute_opt,mol_3461_solvent_opt,50,36,283.08,-0.9162053340259206,Dimethyl terephthalate,ethyl acetate
3462.0,O=C(O)c1cccnc1Cl,CCOC(C)=O,mol_3462_solute_opt,mol_3462_solvent_opt,50,48,273.15,-0.833820291455853,2-chloronicotinic acid,ethyl acetate
3464.0,C[C@]12CCC3=C4CCC(=O)C=C4CC[C@H]3[C@@H]1CC[C@@]2(O)CC#N,CCOC(C)=O,mol_3464_solute_opt,mol_3464_solvent_opt,50,33,273.15,-1.8167778363426672,Dienogest,ethyl acetate
3465.0,CC(=O)Oc1ccc(C(c2ccc(OC(C)=O)cc2)c2ccccn2)cc1,CCOC(C)=O,mol_3465_solute_opt,mol_3465_solvent_opt,50,32,273.15,-2.1187229132899046,Bisacodyl,ethyl acetate
3466.0,C[C@H](N)C(=O)O,CCOC(C)=O,mol_3466_solute_opt,mol_3466_solvent_opt,50,44,283.15,-3.092478804132073,L-alanine,ethyl acetate
3467.0,Nc1c(Cl)cc([N+](=O)[O-])cc1Cl,CCOC(C)=O,mol_3467_solute_opt,mol_3467_solvent_opt,50,43,278.15,-1.049006291010759,"2,6-dichloro-4-nitroaniline",ethyl acetate
3468.0,Oc1ccc(OCc2ccccc2)cc1,CCOC(C)=O,mol_3468_solute_opt,mol_3468_solvent_opt,50,41,283.15,-0.0614883098062081,Monobenzone,ethyl acetate
3469.0,COC(=O)C(C)(C)N=NC(C)(C)C(=O)OC,CCOC(C)=O,mol_3469_solute_opt,mol_3469_solvent_opt,50,37,252.15,0.1103876379905499,"2,2′-azobis(2-methylpropionate)",ethyl acetate
3470.0,NC(N)=NC(N)=NCCc1ccccc1,CCOC(C)=O,mol_3470_solute_opt,mol_3470_solvent_opt,50,30,278.15,-1.78617625445777,Phenformin,ethyl acetate
3471.0,CN(C)Cc1c[nH]c2ccccc12,CCOC(C)=O,mol_3471_solute_opt,mol_3471_solvent_opt,50,36,273.15,-0.7527303091245949,Gramine,ethyl acetate
3472.0,Nc1ccc(Cl)cc1[N+](=O)[O-],CCOC(C)=O,mol_3472_solute_opt,mol_3472_solvent_opt,50,46,278.15,-0.6872173599685314,4-chloro-2-nitroaniline,ethyl acetate
3473.0,COc1cc([N+](=O)[O-])ccc1N,CCOC(C)=O,mol_3473_solute_opt,mol_3473_solvent_opt,50,46,278.15,-0.7030714148036004,2-methoxy-4-nitroaniline,ethyl acetate
3474.0,O=Cc1ccc(O)c(Br)c1,CCOC(C)=O,mol_3474_solute_opt,mol_3474_solvent_opt,50,45,278.15,-0.9973883464137092,3-bromo-4-hydroxybenzaldehyde,ethyl acetate
3475.0,Cc1c(Br)cccc1C(=O)O,CCOC(C)=O,mol_3475_solute_opt,mol_3475_solvent_opt,50,42,278.15,-0.5380146229388361,3-bromo-2-methylbenzoic acid,ethyl acetate
3476.0,CC1(C)NC(=O)NC1=O,CCOC(C)=O,mol_3476_solute_opt,mol_3476_solvent_opt,50,49,283.15,-0.9086888540336752,"5,5-dimethylhydantoin",ethyl acetate
3477.0,ON(Cc1ccccc1)Cc1ccccc1,CCOC(C)=O,mol_3477_solute_opt,mol_3477_solvent_opt,50,40,273.15,-1.0499998062245306,"N,N-dibenzylhydroxylamine",ethyl acetate
3478.0,CS(=O)(=O)c1ccc(C(=O)C2C(=O)CCCC2=O)c([N+](=O)[O-])c1,CCOC(C)=O,mol_3478_solute_opt,mol_3478_solvent_opt,50,37,283.15,-2.232621137391173,Mesotrione,ethyl acetate
3479.0,Cc1nc(CCl)nc2ccccc12,CCOC(C)=O,mol_3479_solute_opt,mol_3479_solvent_opt,50,42,281.15,0.0864857997454325,2-chloromethyl-4-methylquinazoline,ethyl acetate
3480.0,CC(=O)N[C@@H](CC(C)C)C(=O)O,CCOC(C)=O,mol_3480_solute_opt,mol_3480_solvent_opt,50,40,283.15,-1.9734380375812743,N-acetyl-L-leucine,ethyl acetate
3481.0,O=c1[nH]c2ccccc2c(=O)o1,CCOC(C)=O,mol_3481_solute_opt,mol_3481_solvent_opt,50,48,288.15,-1.4816502596669212,Isatoic anhydride,ethyl acetate
3482.0,CC(C(=O)O)c1ccc2c(c1)CC(=O)c1ccccc1S2,CCOC(C)=O,mol_3482_solute_opt,mol_3482_solvent_opt,50,39,278.15,-1.0688294282522168,Zaltoprofen,ethyl acetate
3483.0,Oc1c(Br)cc(Br)c2cccnc12,CCOC(C)=O,mol_3483_solute_opt,mol_3483_solvent_opt,50,42,288.15,-2.0717842380382314,"5,7-dibromo-8-hydroxyquinoline",ethyl acetate
3484.0,COP(=O)(NC(C)=O)SC,CCOC(C)=O,mol_3484_solute_opt,mol_3484_solvent_opt,50,41,307.9,-0.4403594829835184,Acephate,ethyl acetate
3485.0,c1nc[nH]n1,CCOC(C)=O,mol_3485_solute_opt,mol_3485_solvent_opt,50,44,283.21,-0.5447098142784287,"1H-1,2,4-triazole",ethyl acetate
3486.0,O=C(O)c1cccc([N+](=O)[O-])c1C(=O)O,CCOC(C)=O,mol_3486_solute_opt,mol_3486_solvent_opt,50,38,283.2,-1.082126636942624,3-nitrophthalic acid,ethyl acetate
3487.0,O=C(O)CCCCC1CCSS1,CCOC(C)=O,mol_3487_solute_opt,mol_3487_solvent_opt,50,40,273.15,-0.3109532199178576,5-(dithiolan-3-yl)pentanoic acid,ethyl acetate
3488.0,CN/C(=C\[N+](=O)[O-])NCCSCc1csc(CN(C)C)n1,CCOC(C)=O,mol_3488_solute_opt,mol_3488_solvent_opt,50,36,273.15,-2.5162520610059675,Nizatidine,ethyl acetate
3489.0,C[C@@H]1CC[C@H]2[C@@H](C)C(=O)O[C@@H]3O[C@@]4(C)CC[C@@H]1[C@]32OO4,CCOC(C)=O,mol_3489_solute_opt,mol_3489_solvent_opt,50,36,284.15,-1.236913761162711,Artemisinin,ethyl acetate
3490.0,C[C@@]12C[C@H]3OC(=O)[C@@H]1CO[C@]14O[C@@]5([C@H]2C1=O)[C@@]3(C)OC(=O)[C@@]5(O)CC[C@H]1[C@H]4C[C@@H](O)[C@@]2(O)CC=CC(=O)[C@]12C,CCOC(C)=O,mol_3490_solute_opt,mol_3490_solvent_opt,50,38,283.2,-1.506210540619504,Physalin D,ethyl acetate
3492.0,Brc1c(Br)c(Br)c(Oc2c(Br)c(Br)c(Br)c(Br)c2Br)c(Br)c1Br,CCOC(C)=O,mol_3492_solute_opt,mol_3492_solvent_opt,50,41,283.0,-2.8606098272984584,Decabromodiphenyl ether,ethyl acetate
3493.0,O=C(O)CCP(=O)(O)c1ccccc1,CCOC(C)=O,mol_3493_solute_opt,mol_3493_solvent_opt,50,33,293.16,-1.882757635056832,2-carboxyethylphenylphosphinic acid,ethyl acetate
3494.0,O=P1(O)OCC2(CO1)COP(=O)(O)OC2,CCOC(C)=O,mol_3494_solute_opt,mol_3494_solvent_opt,50,40,293.16,-2.0980903731519764,"3,9-dihydroxy-2,4,8,10-tetraoxa-3,9-diphosphaspiro-[5.5]-undecane-3,9-dioxide",ethyl acetate
3495.0,O=P1(Oc2ccccc2)OCC2(CO1)COP(=O)(Oc1ccccc1)OC2,CCOC(C)=O,mol_3495_solute_opt,mol_3495_solvent_opt,50,41,293.25,-1.960728699434276,"3,9-diphenoxy-2,4,8,10-tetraoxa-3,9-diphosphaspiro-[5.5]-undecane-3,9-dioxide",ethyl acetate
3496.0,N[C@@H](Cc1ccc([N+](=O)[O-])cc1[N+](=O)[O-])C(=O)O,CCOC(C)=O,mol_3496_solute_opt,mol_3496_solvent_opt,50,41,303.15,-7.037379004073644,"2,4-dinitro-L-phenylalanine",ethyl acetate
3497.0,CCCCOC(=O)c1ccc(O)cc1,CCOC(C)=O,mol_3497_solute_opt,mol_3497_solvent_opt,50,39,281.05,0.8838338932932329,Butyl paraben,ethyl acetate
3498.0,CP(=O)(O)c1ccccc1,CCOC(C)=O,mol_3498_solute_opt,mol_3498_solvent_opt,50,44,288.35,-0.281279838180854,Methylphenylphosphinic acid,ethyl acetate
3499.0,ClP1(Cl)=NP(Cl)(Cl)=NP(Cl)(Cl)=N1,CCOC(C)=O,mol_3499_solute_opt,mol_3499_solvent_opt,50,47,298.55,-0.1164616395859088,Hexachlorocyclotriphosphazene,ethyl acetate
3500.0,O=[PH](O)c1ccccc1,CCOC(C)=O,mol_3500_solute_opt,mol_3500_solvent_opt,50,44,293.45,-0.8260346769088908,Phenylphosphinic acid,ethyl acetate
3501.0,c1ccc(OP2(Oc3ccccc3)=NP(Oc3ccccc3)(Oc3ccccc3)=NP(Oc3ccccc3)(Oc3ccccc3)=N2)cc1,CCOC(C)=O,mol_3501_solute_opt,mol_3501_solvent_opt,50,32,298.15,-0.1946330299328475,Hexaphenoxycyclotriphosphazene,ethyl acetate
3502.0,COc1cc(CNC(=O)CCCCCCC(C)C)ccc1O,CCOC(C)=O,mol_3502_solute_opt,mol_3502_solvent_opt,50,36,302.07,0.6503420581604857,Dihydrocapsaicin,ethyl acetate
3503.0,O=[N+]([O-])c1cc([N+](=O)[O-])c(O)c(Cl)c1O,CCOC(C)=O,mol_3503_solute_opt,mol_3503_solvent_opt,50,45,298.75,-0.3215645770727353,"2-chloro-4,6-dinitroresorcinol",ethyl acetate
3504.0,CC(C)Cc1ccc([C@H](C)C(=O)O)cc1,CCOC(C)=O,mol_3504_solute_opt,mol_3504_solvent_opt,50,39,263.15,0.2760301062433527,Dexibuprofen,ethyl acetate
3505.0,O=C(CCc1ccc(O)cc1)c1c(O)cc(O)cc1O,CCOC(C)=O,mol_3505_solute_opt,mol_3505_solvent_opt,50,38,288.2,-0.5509917986665915,Phloretin,ethyl acetate
3506.0,CC(=O)OCC(=O)[C@@]1(O)CC[C@H]2[C@@H]3CCC4=CC(=O)C=C[C@]4(C)[C@H]3C(=O)C[C@@]21C,CCOC(C)=O,mol_3506_solute_opt,mol_3506_solvent_opt,50,35,295.65,-1.861087755520633,Prednisone acetate,ethyl acetate
3507.0,CC1(C)CC[C@]2(C(=O)O)CC[C@]3(C)C(=CC[C@@H]4[C@@]5(C)CC[C@H](O)C(C)(C)[C@@H]5CC[C@]43C)[C@@H]2C1,CCOC(C)=O,mol_3507_solute_opt,mol_3507_solvent_opt,50,34,283.2,-1.8139668548844543,Oleanolic acid,ethyl acetate
3508.0,C[C@H]1[C@H](C)CC[C@]2(C(=O)O)CC[C@]3(C)C(=CC[C@@H]4[C@@]5(C)CC[C@H](O)C(C)(C)[C@@H]5CC[C@]43C)[C@H]12,CCOC(C)=O,mol_3508_solute_opt,mol_3508_solvent_opt,50,38,293.6,-2.09997125508871,Ursolic acid,ethyl acetate
3509.0,c1ccc2c(c1)OP1(=NP3(=NP4(=N1)Oc1ccccc1O4)Oc1ccccc1O3)O2,CCOC(C)=O,mol_3509_solute_opt,mol_3509_solvent_opt,50,36,298.15,-2.371476370190456,Tris(o-phenylenedioxy)cyclotriphosphazene,ethyl acetate
3510.0,C=C(C)[C@@H]1CC[C@]2(C(=O)O)CC[C@]3(C)[C@H](CC[C@@H]4[C@@]5(C)CC[C@H](O)C(C)(C)[C@@H]5CC[C@]43C)[C@@H]12,CCOC(C)=O,mol_3510_solute_opt,mol_3510_solvent_opt,50,35,278.2,-2.328303032458353,Betulinic acid,ethyl acetate
3511.0,c1ccc2c(c1)oc1ccccc12,CCOC(C)=O,mol_3511_solute_opt,mol_3511_solvent_opt,50,44,283.15,0.246543643151836,"Dibenzo[b,d]furan",ethyl acetate
3512.0,Nc1ccc(Cl)nn1,CCOC(C)=O,mol_3512_solute_opt,mol_3512_solvent_opt,50,49,298.45,-1.870399731695519,6-chloropyridazin-3-amine,ethyl acetate
3513.0,COc1cccc(Nc2ccccc2)c1,CCOC(C)=O,mol_3513_solute_opt,mol_3513_solvent_opt,50,38,287.15,0.3972768426697273,3-methoxy-N-phenylaniline,ethyl acetate
3514.0,CSc1cccc(Nc2ccccc2)c1,CCOC(C)=O,mol_3514_solute_opt,mol_3514_solvent_opt,50,40,287.85,0.4900658616204261,3-(methylthio)-N-phenylaniline,ethyl acetate
3515.0,Cc1cc(C)c(C(=O)P(=O)(C(=O)c2c(C)cc(C)cc2C)c2ccccc2)c(C)c1,CCOC(C)=O,mol_3515_solute_opt,mol_3515_solvent_opt,50,35,295.4,-0.7333905448856288,"Bis(2,4,6-trimethylbenzoyl)phenylphosphine oxide",ethyl acetate