pair_id,SMILES_Solute,SMILES_Solvent,Solute_name,Solvent_name,Total_conformers,Filtered_conformers,Temperature_K,LogS,Compound_Name,Solvent
539.0,O=C(O)c1ccc(Br)cn1,CCO,mol_539_solute_opt,mol_539_solvent_opt,50,38,278.15,-0.8181025559011591,5-bromo-2-pyridinecarboxylic acid,ethanol
540.0,O=c1[nH]nc([N+](=O)[O-])[nH]1,CCO,mol_540_solute_opt,mol_540_solvent_opt,50,39,278.15,-0.8293874565083732,"3-nitro-1,2,4-triazol-5-one",ethanol
541.0,CCCc1nc(C(C)(C)O)c(C(=O)OCC)n1Cc1ccc(-c2ccccc2-c2nnnn2C(c2ccccc2)(c2ccccc2)c2ccccc2)cc1,CCO,mol_541_solute_opt,mol_541_solvent_opt,50,15,278.15,-2.837012892900753,N-trityl olmesartan ethyl ester,ethanol
542.0,O=C(O)c1cc([N+](=O)[O-])cc([N+](=O)[O-])c1,CCO,mol_542_solute_opt,mol_542_solvent_opt,50,36,283.15,-0.3281806749069845,"3,5-dinitrobenzoic acid",ethanol
543.0,N#Cc1ccncc1,CCO,mol_543_solute_opt,mol_543_solvent_opt,50,39,278.15,-0.5339145276043628,4-cyanopyridine,ethanol
544.0,O=C(Nc1ccccc1)Nc1ccnc(Cl)c1,CCO,mol_544_solute_opt,mol_544_solvent_opt,50,36,278.15,-0.5176303688362631,Forchlorfenuron,ethanol
545.0,C[C@H]1[C@H](OC(=O)CCC(=O)O)O[C@@H]2O[C@@]3(C)CC[C@H]4[C@H](C)CC[C@@H]1[C@@]24OO3,CCO,mol_545_solute_opt,mol_545_solvent_opt,50,24,283.06,-0.7024287548878059,Artesunate,ethanol
546.0,Nc1cccc2ccncc12,CCO,mol_546_solute_opt,mol_546_solvent_opt,50,38,278.15,-1.6270058575376103,8-isoquinolinamine,ethanol
547.0,CC(=O)c1ccc(O)cc1O,CCO,mol_547_solute_opt,mol_547_solvent_opt,50,38,293.15,0.3585033785804412,"2′,4′-dihydroxyacetophenone",ethanol
548.0,Nc1ccnc(=O)[nH]1,CCO,mol_548_solute_opt,mol_548_solvent_opt,50,38,288.15,-2.234137300238959,Cytosine,ethanol
549.0,CCCCCCC1(CCCCCC)c2cc(Br)ccc2-c2ccc(Br)cc21,CCO,mol_549_solute_opt,mol_549_solvent_opt,50,19,283.15,-1.563106523682511,"9,9-dihexyl-2,7-dibromofluorene",ethanol
550.0,O=c1cnc(Br)c[nH]1,CCO,mol_550_solute_opt,mol_550_solvent_opt,50,42,278.15,-1.916042485206705,2-bromo-5-hydroxypyrazine,ethanol
551.0,Nc1cnc(Br)cn1,CCO,mol_551_solute_opt,mol_551_solvent_opt,50,38,278.15,-1.5989981818189123,2-amino-5-bromopyrazine,ethanol
552.0,O=[N+]([O-])n1cccn1,CCO,mol_552_solute_opt,mol_552_solvent_opt,50,41,293.15,-0.6265109301284804,N-nitropyrazole,ethanol
553.0,CC(=O)Oc1cc(C)c(OC(C)=O)c2ccccc12,CCO,mol_553_solute_opt,mol_553_solvent_opt,50,32,283.1,-1.2510357479086047,Menadiol diacetate,ethanol
554.0,NC(=O)CC[C@H](N)C(=O)O,CCO,mol_554_solute_opt,mol_554_solvent_opt,50,34,283.15,-2.3255015691987064,L-glutamine,ethanol
555.0,Cc1cc(C#N)c(Nc2ccccc2[N+](=O)[O-])s1,CCO,mol_555_solute_opt,mol_555_solvent_opt,50,34,292.15,-1.7402059962912664,5-methyl-2-[(2-nitrophenyl)amino]-3-thiophenecarbonitrile,ethanol
556.0,c1ccc(-c2ccc(C(c3ccccc3)n3ccnc3)cc2)cc1,CCO,mol_556_solute_opt,mol_556_solvent_opt,50,30,283.15,-1.3132478784970865,Bifonazole,ethanol
557.0,c1ccc(-n2c3ccccc3c3ccccc32)cc1,CCO,mol_557_solute_opt,mol_557_solvent_opt,50,32,278.15,-1.7628262933386476,9-phenylcarbazole,ethanol
558.0,Nc1ccc(Br)nn1,CCO,mol_558_solute_opt,mol_558_solvent_opt,50,40,278.15,-1.4239019918969331,3-amino-6-bromopyridazine,ethanol
559.0,O=C(Nc1ccncc1)c1cc(C(=O)Nc2ccncc2)cc(C(=O)Nc2ccncc2)c1,CCO,mol_559_solute_opt,mol_559_solvent_opt,50,22,283.15,-3.0869256382058405,"N1,N3,N5-tris(pyridin-4-yl)benzene-1,3,5-tricarboxamide (TPBTC)",ethanol
560.0,Cc1ccc2cc(Br)ccc2n1,CCO,mol_560_solute_opt,mol_560_solvent_opt,50,38,278.15,-1.7863276006513096,6-bromo-2-methylquinoline,ethanol
561.0,NC(=O)c1ccncc1,CCO,mol_561_solute_opt,mol_561_solvent_opt,50,38,278.15,-0.46948301972614,Isonicotinamide,ethanol
562.0,CC(O)(CS(=O)(=O)c1ccc(F)cc1)C(=O)Nc1ccc(C#N)c(C(F)(F)F)c1,CCO,mol_562_solute_opt,mol_562_solvent_opt,50,25,278.15,-2.089744228885828,Bicalutamide,ethanol
563.0,O=S1(=O)OC(c2ccc(O)cc2)(c2ccc(O)cc2)c2ccccc21,CCO,mol_563_solute_opt,mol_563_solvent_opt,50,38,278.15,-3.1648136960902606,Phenol red,ethanol
564.0,O=C(O)/C=C/c1cccc(O)c1,CCO,mol_564_solute_opt,mol_564_solvent_opt,50,39,293.15,0.0343523231337437,trans-3-hydroxycinnamic acid,ethanol
565.0,Oc1ccc(C2(c3ccc(O)cc3)CCCCC2)cc1,CCO,mol_565_solute_opt,mol_565_solvent_opt,50,30,288.15,-0.8974664927840512,Bisphenol Z (BPZ),ethanol
566.0,Cc1cccc(C(=O)O)c1,CCO,mol_566_solute_opt,mol_566_solvent_opt,50,33,299.45,0.4752020168374927,m-methylbenzoic acid,ethanol
567.0,COC(=O)c1ccnc(N)c1,CCO,mol_567_solute_opt,mol_567_solvent_opt,50,35,278.15,-1.2507189168526145,Methyl 2-aminopyridine-4-carboxylate,ethanol
568.0,CC(C)C[C@H](N)C(=O)O,CCO,mol_568_solute_opt,mol_568_solvent_opt,50,32,283.15,-2.596018977918484,L-leucine,ethanol
569.0,CC(C)[C@H](N)C(=O)O,CCO,mol_569_solute_opt,mol_569_solvent_opt,50,33,283.15,-2.3566795985773843,L-valine,ethanol
570.0,CC1COC(Cn2cncn2)(c2ccc(Oc3ccc(Cl)cc3)cc2Cl)O1,CCO,mol_570_solute_opt,mol_570_solvent_opt,50,29,278.15,-1.7558565515628362,Difenoconazole,ethanol
571.0,Oc1ccccc1C=Nc1c(F)cccc1F,CCO,mol_571_solute_opt,mol_571_solvent_opt,50,36,273.15,-1.0588928196355556,"2-[[(2,6-difluorophenyl)imino]methyl]phenol",ethanol
572.0,c1ccc2c(c1)Cc1ccccc1-2,CCO,mol_572_solute_opt,mol_572_solvent_opt,50,36,278.15,-1.1774545932194167,Fluorene,ethanol
573.0,O=C(O)CNC(=O)C(=O)NCC(=O)O,CCO,mol_573_solute_opt,mol_573_solvent_opt,50,35,293.15,-3.447956779055456,"N,N′-oxalyldiglycine",ethanol
574.0,O=C(O)c1cccc(O)c1,CCO,mol_574_solute_opt,mol_574_solvent_opt,50,37,278.15,0.2550642994429023,m-Hydroxybenzoic acid,ethanol
575.0,O=C1C(CCS(=O)c2ccccc2)C(=O)N(c2ccccc2)N1c1ccccc1,CCO,mol_575_solute_opt,mol_575_solvent_opt,50,28,283.15,-1.5672637121278112,Sulfinpyrazone,ethanol
576.0,Nc1nonc1-c1no[n+]([O-])c1-c1nonc1N,CCO,mol_576_solute_opt,mol_576_solvent_opt,50,33,283.15,-0.8951188017666294,"3,4-bis(4′-aminofurazan-3′-yl)furoxan",ethanol
577.0,CC(C)(C)c1ccc(-c2nnc(-c3ccc(-c4ccccc4)cc3)o2)cc1,CCO,mol_577_solute_opt,mol_577_solvent_opt,50,25,283.15,-1.9689626044246191,"2-(4-tert-butylphenyl)-5-(4-biphenyl)-1,3,4-oxadiazole",ethanol
578.0,Nc1ncnc2c1ncn2CCOCP(=O)(O)O,CCO,mol_578_solute_opt,mol_578_solvent_opt,50,33,278.15,-2.8837978157405053,Adefovir,ethanol
579.0,NC(=O)CS(=O)C(c1ccccc1)c1ccccc1,CCO,mol_579_solute_opt,mol_579_solvent_opt,50,27,280.6,-1.93498494448652,Modafinil,ethanol
580.0,O=c1ccc2cc(O)c(O)cc2o1,CCO,mol_580_solute_opt,mol_580_solvent_opt,50,40,273.15,0.1586076644043795,Esculetin,ethanol
581.0,COc1ccc(C(=O)c2ccc(OC)cc2)cc1,CCO,mol_581_solute_opt,mol_581_solvent_opt,50,32,293.15,-1.8065923672089683,"4,4′-dimethoxybenzophenone",ethanol
582.0,CC(C)(N)C(=O)O,CCO,mol_582_solute_opt,mol_582_solvent_opt,50,30,283.15,-2.7529791679491447,α-Aminoisobutyric Acid,ethanol
583.0,N#CCC(N)=O,CCO,mol_583_solute_opt,mol_583_solvent_opt,50,46,283.15,-0.943865215904377,2-cyanoacetamide,ethanol
584.0,COc1ccc(/C=C/C(=O)O)cc1OC,CCO,mol_584_solute_opt,mol_584_solvent_opt,50,30,283.15,-1.464317525453442,"3,4-dimethoxycinnamic acid",ethanol
585.0,CCOc1ccc(OCC)cc1,CCO,mol_585_solute_opt,mol_585_solvent_opt,50,26,278.15,-1.2704179421138435,"1,4-diethoxybenzene",ethanol
586.0,NNC(=O)c1ccccc1,CCO,mol_586_solute_opt,mol_586_solvent_opt,50,40,283.15,-0.6185908150497353,Benzhydrazide,ethanol
587.0,NNC(=O)c1ccccc1O,CCO,mol_587_solute_opt,mol_587_solvent_opt,50,35,283.15,-0.7797545145932879,2-Hydroxybenzohydrazide,ethanol
588.0,COC(=O)c1cc(OC)c2c(c1-c1c(C(=O)OC)cc(OC)c3c1OCO3)OCO2,CCO,mol_588_solute_opt,mol_588_solvent_opt,50,27,293.15,-2.9544259983725194,Bifendate,ethanol
589.0,OCC1(O)OC[C@@H](O)[C@@H](O)[C@H]1O,CCO,mol_589_solute_opt,mol_589_solvent_opt,50,36,283.15,-1.1924015071259992,D-psicose,ethanol
590.0,CC(=O)O[C@H]1NC(=O)[C@@H]1[C@@H](C)O[Si](C)(C)C(C)(C)C,CCO,mol_590_solute_opt,mol_590_solvent_opt,50,23,293.15,-0.0516892466873787,4-acetoxyazetidin-2-one,ethanol
591.0,Oc1ccccc1C=N[C@@H]1CCCC[C@H]1N=Cc1ccccc1O,CCO,mol_591_solute_opt,mol_591_solvent_opt,50,25,273.15,-1.8602172999751068,"Bis(salicylidene)-trans-1,2-cyclo-hexanediamine",ethanol
592.0,CC(C)[C@H](NC(=O)OCC1c2ccccc2-c2ccccc21)C(=O)O,CCO,mol_592_solute_opt,mol_592_solvent_opt,50,25,283.15,-0.5068947692529725,Fmoc-L-valine,ethanol
593.0,O=[N+]([O-])c1ccc(Oc2ccc([N+](=O)[O-])cc2)cc1,CCO,mol_593_solute_opt,mol_593_solvent_opt,50,38,283.15,-2.216907339057465,"4,4′-dinitrodiphenyl ether",ethanol
594.0,CCCCN(CCCC)c1ccc(C(=O)c2ccccc2C(=O)O)c(O)c1,CCO,mol_594_solute_opt,mol_594_solvent_opt,50,24,283.15,-1.4752273327557337,2-[4-(dibutylamino)-2-hydroxybenzoyl] benzoic acid,ethanol
595.0,c1ccc2[nH]cnc2c1,CCO,mol_595_solute_opt,mol_595_solvent_opt,50,39,283.15,0.1580128340222615,Benzimidazole,ethanol
596.0,CC[C@H](C)[C@H](N)C(=O)O,CCO,mol_596_solute_opt,mol_596_solvent_opt,50,38,283.15,-2.462029777790498,L-isoleucine,ethanol
597.0,Cc1cc(Cl)ccc1OCC(=O)O,CCO,mol_597_solute_opt,mol_597_solvent_opt,50,34,278.15,0.3963675596447796,2-methyl-4-chlorophenoxyacetic acid,ethanol
598.0,Cc1cccc2sc(NN)nc12,CCO,mol_598_solute_opt,mol_598_solvent_opt,50,38,273.15,-1.8495791851139427,2-hydrazino-4-methylbenzothiazole,ethanol
599.0,CCC[C@@H]1CC(=O)N([C@@H](CC)C(N)=O)C1,CCO,mol_599_solute_opt,mol_599_solvent_opt,50,28,278.15,0.608549297522226,Brivaracetam,ethanol
600.0,Cc1nc2n(c(=O)c1CCN1CCC(c3noc4cc(F)ccc34)CC1)CCCC2O,CCO,mol_600_solute_opt,mol_600_solvent_opt,50,22,288.15,-2.9459149246783074,Paliperidone,ethanol
601.0,CC(C(=O)O)c1ccc(CC2CCCC2=O)cc1,CCO,mol_601_solute_opt,mol_601_solvent_opt,50,27,283.15,0.0223182485768865,Loxoprofen,ethanol
602.0,O=C(O)c1ccc(Cl)cc1Cl,CCO,mol_602_solute_opt,mol_602_solvent_opt,50,40,273.15,-0.1794531993725939,"2,4-dichlorobenzoic acid",ethanol
603.0,Cn1nccc1O,CCO,mol_603_solute_opt,mol_603_solvent_opt,50,36,278.15,0.1931169674152106,5-hydroxy-1-methylpyrazole,ethanol
604.0,Nc1ncccn1,CCO,mol_604_solute_opt,mol_604_solvent_opt,50,32,272.65,-0.7537803864034213,2-aminopyrimidine,ethanol
605.0,C=C(C)[C@@H]1CC[C@]2(C(=O)O)CC[C@]3(C)[C@H](CC[C@@H]4[C@@]5(C)CCC(=O)C(C)(C)[C@@H]5CC[C@]43C)[C@@H]12,CCO,mol_605_solute_opt,mol_605_solvent_opt,50,18,278.15,-1.1820677826023267,Betulonic acid,ethanol
606.0,C=CC(=O)NC(C)(C)C,CCO,mol_606_solute_opt,mol_606_solvent_opt,50,28,284.95,-1.6283087342195934,N-tert-butylacrylamide,ethanol
607.0,C=C1C[C@]23C[C@H]1CC[C@H]2[C@@]12CC[C@H](O)[C@@](C)(C(=O)O1)[C@H]2[C@@H]3C(=O)O,CCO,mol_607_solute_opt,mol_607_solvent_opt,50,25,278.15,-1.8505916443962909,Gibberellin A4,ethanol
608.0,O=Cc1ccc2ccccc2c1,CCO,mol_608_solute_opt,mol_608_solvent_opt,50,33,283.15,-0.5466534137915107,2-naphthaldehyde,ethanol
609.0,CN1C(C(=O)Nc2ccccn2)=C(O)c2sccc2S1(=O)=O,CCO,mol_609_solute_opt,mol_609_solvent_opt,50,33,298.15,-3.198911277665907,Tenoxicam,ethanol
610.0,OC[C@@H](O)[C@@H](O[C@H]1O[C@H](CO)[C@@H](O)[C@H](O)[C@H]1O)[C@H](O)[C@@H](O)CO,CCO,mol_610_solute_opt,mol_610_solvent_opt,50,26,298.15,-3.211983164255057,Maltitol,ethanol
611.0,COc1cc(Cc2cnc(N)nc2N)cc(OC)c1OC,CCO,mol_611_solute_opt,mol_611_solvent_opt,50,23,293.15,-1.914621519659722,Trimethoprim,ethanol
612.0,COc1cc(C(=O)O)ccc1O,CCO,mol_612_solute_opt,mol_612_solvent_opt,50,35,293.15,-0.2786741536511787,Vanillic acid,ethanol
613.0,O=S(=O)(c1ccc(O)cc1)c1ccc(O)cc1,CCO,mol_613_solute_opt,mol_613_solvent_opt,50,21,278.15,-2.429604549018776,"4,4′-dihydroxydiphenylsulfone",ethanol
614.0,CC(C)(C)OC(=O)N[C@@H](CC(=O)O)Cc1cc(F)c(F)cc1F,CCO,mol_614_solute_opt,mol_614_solvent_opt,50,25,280.15,-0.1876128594462068,"Boc-(R)-3-amino-4-(2,4,5-trifluorophenyl)butanoic acid",ethanol
615.0,CC(C)(C)c1ccc(OP2OCC3(CO2)COP(Oc2ccc(C(C)(C)C)cc2C(C)(C)C)OC3)c(C(C)(C)C)c1,CCO,mol_615_solute_opt,mol_615_solvent_opt,50,17,303.25,-2.503203218859721,Antioxidant 626,ethanol
616.0,O=C(O)c1cc(C(=O)O)cc(C(=O)O)c1,CCO,mol_616_solute_opt,mol_616_solvent_opt,50,37,302.89,-0.4456950864723537,"1,3,5-benzenetricarboxylic acid",ethanol
617.0,CC[C@@]1(O)C(=O)OCc2c1cc1n(c2=O)Cc2cc3ccccc3nc2-1,CCO,mol_617_solute_opt,mol_617_solvent_opt,50,29,277.98,-3.803119608225397,Camptothecine,ethanol
618.0,CS(=O)(=O)c1ccc(C=O)cc1,CCO,mol_618_solute_opt,mol_618_solvent_opt,50,33,283.15,-1.822376382915264,4-(methylsulfonyl)benzaldehyde,ethanol
619.0,CCOc1ncc(C)c2c1[C@H](c1ccc(C#N)cc1OC)C(C(N)=O)=C(C)N2,CCO,mol_619_solute_opt,mol_619_solvent_opt,50,23,273.15,-1.7788554030788497,Finerenone,ethanol
620.0,CCOC(=O)c1ccc(N)cc1,CCO,mol_620_solute_opt,mol_620_solvent_opt,50,35,283.15,-0.02066984136869,Benzocaine,ethanol
621.0,O=C1NC(=O)c2cc([N+](=O)[O-])ccc21,CCO,mol_621_solute_opt,mol_621_solvent_opt,50,38,273.15,-1.903195622994725,4-nitrophthalimide,ethanol
622.0,CC(C)OC(=O)C(C)(C)Oc1ccc(C(=O)c2ccc(Cl)cc2)cc1,CCO,mol_622_solute_opt,mol_622_solvent_opt,50,23,278.15,-1.3190032501639488,Fenofibrate,ethanol
623.0,O=C1NC23NC(=O)NC2(N1)C(=O)NC3=O,CCO,mol_623_solute_opt,mol_623_solvent_opt,50,38,273.15,-2.967632130948912,"3,7,9,11-Tetraoxo-2,4,6,8,10-pentaaza[3.3.3] Propellane (TOPAP)",ethanol
624.0,COC(=O)[C@H](N)c1ccc(O)cc1,CCO,mol_624_solute_opt,mol_624_solvent_opt,50,35,283.15,-1.64953047743266,Methyl D-(−)-4-hydroxy-phenylglycinate,ethanol
625.0,CC(=O)c1ccc(S(C)(=O)=O)cc1,CCO,mol_625_solute_opt,mol_625_solvent_opt,50,25,278.15,-0.663611594769069,4-methylsulfonylacetophenone,ethanol
626.0,COC(=O)c1c(C)cc(O)c(C)c1O,CCO,mol_626_solute_opt,mol_626_solvent_opt,50,33,283.15,0.1663435788936898,Veramoss,ethanol
627.0,CCOC(=O)N1CCC(=C2c3ccc(Cl)cc3CCc3cccnc32)CC1,CCO,mol_627_solute_opt,mol_627_solvent_opt,50,28,283.15,-0.6808775779096429,Loratadine,ethanol
628.0,O=[N+]([O-])N1C2C3N([N+](=O)[O-])C1C1N([N+](=O)[O-])C(C(N1[N+](=O)[O-])N3[N+](=O)[O-])N2[N+](=O)[O-],CCO,mol_628_solute_opt,mol_628_solvent_opt,50,24,278.15,-2.046017797023336,ε-CL-20,ethanol
629.0,O=C(O)Cc1cccc2ccccc12,CCO,mol_629_solute_opt,mol_629_solvent_opt,50,39,278.25,-0.5589859438322622,1-naphthaleneacetic acid,ethanol
630.0,CCCCC1C(=O)N(c2ccccc2)N(c2ccccc2)C1=O,CCO,mol_630_solute_opt,mol_630_solvent_opt,50,25,283.13,-1.1618343031784268,Phenylbutazone,ethanol
631.0,CC(=O)Oc1ccc(C2CC(=O)c3c(OC(C)=O)cc(OC(C)=O)cc3O2)cc1,CCO,mol_631_solute_opt,mol_631_solvent_opt,50,29,278.2,-1.9006667901771743,"4′,5,7-triacetoxyflavanone",ethanol
632.0,O=C(O)c1c(O)cccc1O,CCO,mol_632_solute_opt,mol_632_solvent_opt,50,32,278.15,0.6938370215532196,"2,6-dihydroxybenzoic acid",ethanol
633.0,CC(C)(C)c1ccc(C(=O)O)cc1,CCO,mol_633_solute_opt,mol_633_solvent_opt,50,32,293.15,0.1244049425591985,Para-tert-butylbenzoic acid,ethanol
634.0,CCOc1cc(C=O)ccc1O,CCO,mol_634_solute_opt,mol_634_solvent_opt,50,33,273.15,0.0199572151134793,Ethyl vanillin,ethanol
635.0,c1ccc(P(c2ccccc2)c2ccccc2)cc1,CCO,mol_635_solute_opt,mol_635_solvent_opt,50,35,303.5,-0.8128773283067325,Triphenylphosphine,ethanol
636.0,N#Cc1cccnc1,CCO,mol_636_solute_opt,mol_636_solvent_opt,50,41,268.15,-0.1026890152856505,3-cyanopyridine,ethanol
637.0,On1nnc2ccccc21,CCO,mol_637_solute_opt,mol_637_solvent_opt,50,40,278.15,-0.2422885760277361,1-hydroxybenzotriazole,ethanol
638.0,COc1cc(C(=O)O)cc(OC)c1O,CCO,mol_638_solute_opt,mol_638_solvent_opt,50,35,283.15,-0.6951390475417332,Syringic acid,ethanol
639.0,CC(C)(C#N)N=NC(C)(C)C#N,CCO,mol_639_solute_opt,mol_639_solvent_opt,50,41,278.55,-1.3388099925405947,"2,2′-azobisisobutyronitrile (AIBN)",ethanol
640.0,CS(=O)(=O)c1ccc([C@@H](O)[C@@H](CO)NC(=O)C(Cl)Cl)cc1,CCO,mol_640_solute_opt,mol_640_solvent_opt,50,16,278.15,-2.7515265295222258,Thiamphenicol,ethanol
641.0,N#Cc1cccc([N+](=O)[O-])c1,CCO,mol_641_solute_opt,mol_641_solvent_opt,50,45,278.15,-1.2639388290620708,3-nitrobenzonitrile,ethanol
642.0,OC/C=C/c1ccccc1,CCO,mol_642_solute_opt,mol_642_solvent_opt,50,34,253.15,0.703098957391253,Trans-cinnamyl alcohol,ethanol
643.0,CO/C=C(/C(=O)OC)c1ccccc1Oc1cc(Oc2ccccc2C#N)ncn1,CCO,mol_643_solute_opt,mol_643_solvent_opt,50,23,288.15,-1.89032619000112,Azoxystrobin,ethanol
644.0,CC1(C)COP(=O)(Oc2cccc(OP3(=O)OCC(C)(C)CO3)c2)OC1,CCO,mol_644_solute_opt,mol_644_solvent_opt,50,24,293.15,-1.5123980327420228,"Resorcinol bis(cyclic 2,2-dimethyl-1,3-propanediol phosphate)",ethanol
645.0,Cc1ccccc1S(N)(=O)=O,CCO,mol_645_solute_opt,mol_645_solvent_opt,50,40,283.15,-0.3677211551226129,o-Toluenesulfonamide,ethanol
646.0,CC1(C)O[C@H]2CC(=O)OC[C@]23[C@H]2CC[C@@]4(C)[C@H](c5ccoc5)OC(=O)[C@H]5O[C@]54[C@]2(C)C(=O)C[C@@H]13,CCO,mol_646_solute_opt,mol_646_solvent_opt,50,20,283.2,-3.3377009513100773,Limonin,ethanol
647.0,CN1CC(O)c2cc(N=NC(N)=O)c(O)cc21,CCO,mol_647_solute_opt,mol_647_solvent_opt,50,36,278.15,-3.502647284490816,Carbazochrome,ethanol
648.0,O=C(O)c1ccc(C(=O)O)o1,CCO,mol_648_solute_opt,mol_648_solvent_opt,50,37,299.35,-1.293520562329832,"2,5-furandicarboxylic acid",ethanol
649.0,Nc1ccc(S(=O)(=O)Nc2ccc(Cl)nn2)cc1,CCO,mol_649_solute_opt,mol_649_solvent_opt,50,31,283.15,-1.179498777738479,Sulfachloropyridazine,ethanol
650.0,COc1ccc(C(=O)N2CCCC2=O)cc1,CCO,mol_650_solute_opt,mol_650_solvent_opt,50,30,273.15,-1.7904605118255343,Aniracetam,ethanol
651.0,CS(=O)(=O)c1ccc([C@@H](O)[C@@H](CF)NC(=O)C(Cl)Cl)cc1,CCO,mol_651_solute_opt,mol_651_solvent_opt,50,25,283.15,-1.581990412430319,Florfenicol,ethanol
652.0,Cc1cc(C)nc(Nc2ccccc2)n1,CCO,mol_652_solute_opt,mol_652_solvent_opt,50,31,283.15,-0.5917898678490223,Pyrimethanil,ethanol
653.0,CC(=O)c1ccc([N+](=O)[O-])cc1,CCO,mol_653_solute_opt,mol_653_solvent_opt,50,40,278.15,-0.9319904876944828,1-(4-nitrophenyl)ethanone,ethanol
654.0,CC(=O)c1cccc([N+](=O)[O-])c1,CCO,mol_654_solute_opt,mol_654_solvent_opt,50,37,278.15,-1.0693321333454906,1-(3-nitrophenyl)ethanone,ethanol
655.0,O=C(c1ccccc1)c1ccccc1,CCO,mol_655_solute_opt,mol_655_solvent_opt,50,34,278.15,-0.2452593505911536,Benzophenone,ethanol
656.0,Nc1nc(Cl)cc(Cl)n1,CCO,mol_656_solute_opt,mol_656_solvent_opt,50,36,278.15,-1.7902383938859237,"2-amino-4,6-dichoropyrimidine",ethanol
657.0,CCOC(=O)[C@H](CCc1ccccc1)N[C@@H](C)C(=O)O,CCO,mol_657_solute_opt,mol_657_solvent_opt,50,25,273.15,-1.3195032163739358,Enalapril hydride,ethanol
658.0,C[C@H](O)[C@@H](O)[C@@H](O)[C@H](O)C=O,CCO,mol_658_solute_opt,mol_658_solvent_opt,50,31,288.15,-2.258682356230254,L-fucose,ethanol
659.0,COCC(=O)Nc1c(I)c(C(=O)NCC(O)CO)c(I)c(C(=O)N(C)CC(O)CO)c1I,CCO,mol_659_solute_opt,mol_659_solvent_opt,50,22,273.15,-2.573197878014466,Iopromide,ethanol
660.0,O=c1nc[nH]c2[nH]ncc12,CCO,mol_660_solute_opt,mol_660_solvent_opt,50,45,278.15,-3.367240247799601,Allopurinol,ethanol
661.0,COc1ccc2c(c1)c(CC(=O)O)c(C)n2C(=O)c1ccc(Cl)cc1,CCO,mol_661_solute_opt,mol_661_solvent_opt,50,28,298.15,-1.1219432362137052,Indomethacin,ethanol
662.0,O=C(O)Cc1ccccc1Nc1c(Cl)cccc1Cl,CCO,mol_662_solute_opt,mol_662_solvent_opt,50,29,298.15,-0.7710115794072795,Diclofenac,ethanol
663.0,O=C(O)c1cccnc1Nc1cccc(C(F)(F)F)c1,CCO,mol_663_solute_opt,mol_663_solvent_opt,50,33,298.15,-0.622387211699005,Niflumic acid,ethanol
664.0,c1cc2cccc3c4cccc5cccc(c(c1)c23)c54,CCO,mol_664_solute_opt,mol_664_solvent_opt,50,30,298.15,-3.384475423871057,Perylene,ethanol
665.0,c1ccc(N(c2ccc(-c3ccc(N(c4ccccc4)c4cccc5ccccc45)cc3)cc2)c2cccc3ccccc23)cc1,CCO,mol_665_solute_opt,mol_665_solvent_opt,50,19,298.15,-5.020889249248016,"N,N′-di-1-naphthyl-N,N′-diphenylbenzidine",ethanol
666.0,c1ccc2c(c1)c1ccccc1n2-c1ccc(-c2ccc(-n3c4ccccc4c4ccccc43)cc2)cc1,CCO,mol_666_solute_opt,mol_666_solvent_opt,50,25,298.15,-4.416117804630076,"4,4′-bis(9H-carbazol-9-yl)biphenyl (CBP)",ethanol
667.0,c1ccc2cc3cc4ccccc4cc3cc2c1,CCO,mol_667_solute_opt,mol_667_solvent_opt,50,32,298.15,-3.928820251545686,Tetracene,ethanol
668.0,c1ccc2cc3ccccc3cc2c1,CCO,mol_668_solute_opt,mol_668_solvent_opt,50,34,298.15,-2.136671613064442,Anthracene,ethanol
669.0,N#Cc1ccc([N+](=O)[O-])cc1,CCO,mol_669_solute_opt,mol_669_solvent_opt,50,42,278.15,-1.3509012462465486,4-nitrobenzonitrile,ethanol
670.0,NC(=O)c1cccnc1,CCO,mol_670_solute_opt,mol_670_solvent_opt,50,37,283.15,-0.3296065929012147,Nicotinamide,ethanol
671.0,CC(=O)O[C@H]1CC[C@@]2(C)C(=CC[C@@H]3[C@@H]2CC[C@]2(C)C(c4cccnc4)=CC[C@@H]32)C1,CCO,mol_671_solute_opt,mol_671_solvent_opt,50,28,296.0,-0.7186499812271832,Abiraterone acetate,ethanol
672.0,C[C@]12CC[C@H](O)CC1=CC[C@@H]1[C@@H]2CC[C@]2(C)C(c3cccnc3)=CC[C@@H]12,CCO,mol_672_solute_opt,mol_672_solvent_opt,50,28,296.0,-1.7590835823338251,Abiraterone,ethanol
673.0,O=C(O)c1cc2ccccc2cc1O,CCO,mol_673_solute_opt,mol_673_solvent_opt,50,31,293.15,-0.4177967005903051,3-hydroxy-2-naphthoic acid,ethanol
674.0,CCOC(=O)C1=C[C@]2(CC)CCCN3CCc4c(n1c1ccccc41)[C@@H]32,CCO,mol_674_solute_opt,mol_674_solvent_opt,50,26,283.15,-2.069533135433189,Vinpocetine,ethanol