pair_id,SMILES_Solute,SMILES_Solvent,Solute_name,Solvent_name,Total_conformers,Filtered_conformers,Temperature_K,LogS,Compound_Name,Solvent
2359.0,O=C(O)CO,O,mol_2359_solute_opt,mol_2359_solvent_opt,50,29,280.15,1.1525043083439337,Glycolic acid,water
2360.0,O=C(O)COCC(=O)O,O,mol_2360_solute_opt,mol_2360_solvent_opt,50,17,278.25,0.3234065616387889,Diglycolic acid,water
2361.0,CCCCCCCCC(=O)NCc1ccc(O)c(OC)c1,O,mol_2361_solute_opt,mol_2361_solvent_opt,50,8,293.2,-3.042644118718597,Nonivamide,water
2362.0,COc1ccc(-c2cc(=O)c3c(O)cc(O[C@@H]4O[C@H](CO[C@@H]5O[C@@H](C)[C@H](O)[C@@H](O)[C@H]5O)[C@@H](O)[C@H](O)[C@H]4O)cc3o2)cc1O,O,mol_2362_solute_opt,mol_2362_solvent_opt,50,7,298.15,-4.160006772752268,Diosmin,water
2363.0,O=[N+]([O-])c1nonc1-c1no[n+]([O-])c1-c1nonc1[N+](=O)[O-],O,mol_2363_solute_opt,mol_2363_solvent_opt,50,11,312.55,-0.1339208617323959,"3,4-bis(3-nitrofurazan-4-yl)furoxan",water
2364.0,Nc1cccc(N)c1,O,mol_2364_solute_opt,mol_2364_solvent_opt,50,17,278.15,-0.2831065099270963,m-phenylenediamine,water
2365.0,Nc1nnc(-c2cccc(Cl)c2Cl)c(N)n1,O,mol_2365_solute_opt,mol_2365_solvent_opt,50,15,293.15,-3.369918280921193,Lamotrigine,water
2366.0,O=C(OCCO)c1ccc(C(=O)OCCO)cc1,O,mol_2366_solute_opt,mol_2366_solvent_opt,50,11,283.15,-3.025308269903097,bis-2-hydroxyethyl terephthalate (BHET),water
2367.0,COc1ccc2c(c1)c(CC(=O)O)c(C)n2C(=O)c1ccc(Cl)cc1,O,mol_2367_solute_opt,mol_2367_solvent_opt,50,8,293.15,-4.363760977112637,Indomethacin,water
2368.0,N[C@@H](CCC(=O)O)C(=O)O,O,mol_2368_solute_opt,mol_2368_solvent_opt,50,14,293.0,-1.3235511654330752,β-form l-glutamic acid,water
2369.0,CC1(C)COP(=O)(O)OC1c1ccccc1Cl,O,mol_2369_solute_opt,mol_2369_solvent_opt,50,14,278.15,-2.1621717544713577,Chlocyphos,water
2370.0,NCC(=O)O,O,mol_2370_solute_opt,mol_2370_solvent_opt,50,23,278.15,0.3421477554524383,Glycine,water
2371.0,Cc1cc(C)nc(NS(=O)(=O)c2ccc(N)cc2)n1,O,mol_2371_solute_opt,mol_2371_solvent_opt,50,12,293.15,-3.9100584115886017,Sulfamethazine,water
2372.0,Cc1ccnc(NS(=O)(=O)c2ccc(N)cc2)n1,O,mol_2372_solute_opt,mol_2372_solvent_opt,50,12,293.15,-4.129306969854257,Sulfamerazine,water
2373.0,CS(=O)(=O)c1ccc([C@@H](O)[C@@H](CF)NC(=O)C(Cl)Cl)cc1,O,mol_2373_solute_opt,mol_2373_solvent_opt,50,14,293.15,-2.5530990396302644,Florfenicol,water
2374.0,CCN1CCN(C(=O)N[C@@H](C(=O)N[C@@H]2C(=O)N3C(C(=O)O)=C(CSc4nnnn4C)CS[C@H]23)c2ccc(O)cc2)C(=O)C1=O,O,mol_2374_solute_opt,mol_2374_solvent_opt,50,9,278.15,-3.383487787234245,Cefoperazone,water
2375.0,O[C@H]1[C@H](O)[C@@H](O)[C@H](O)[C@@H](O)[C@H]1O,O,mol_2375_solute_opt,mol_2375_solvent_opt,50,17,278.15,-0.3564080405525052,Myo-inositol,water
2376.0,COc1cc(O)c2c(c1)oc(=O)c1c3cc(O)c(O)cc3oc21,O,mol_2376_solute_opt,mol_2376_solvent_opt,50,12,278.15,-1.0102034344970607,Ethanol,water
2377.0,Cc1nnc(SCC2=C(C(=O)O)N3C(=O)[C@@H](NC(=O)Cn4cnnn4)[C@H]3SC2)s1,O,mol_2377_solute_opt,mol_2377_solvent_opt,50,14,278.15,-3.3153960529755544,Cefazolin acid,water
2378.0,CN1C(=O)CN=C(c2ccccc2)c2cc(Cl)ccc21,O,mol_2378_solute_opt,mol_2378_solvent_opt,50,13,293.15,-3.826981918407137,Diazepam,water
2379.0,CC(=O)Nc1ccc(O)cc1,O,mol_2379_solute_opt,mol_2379_solvent_opt,50,21,293.15,-1.0654069733208589,Paracetamol,water
2380.0,CC(=O)NC[C@H]1CN(c2ccc(N3CCOCC3)c(F)c2)C(=O)O1,O,mol_2380_solute_opt,mol_2380_solvent_opt,50,10,283.15,-2.348318121163843,Linezolid,water
2381.0,Nc1ccn([C@@H]2O[C@H](CO)[C@@H](O)[C@@H]2O)c(=O)n1,O,mol_2381_solute_opt,mol_2381_solvent_opt,50,12,293.15,-0.3454776363927885,Cytarabine,water
2382.0,Cn1c(=O)c2c(ncn2C)n(C)c1=O,O,mol_2382_solute_opt,mol_2382_solvent_opt,50,16,298.0,-0.970943464678271,Caffeine,water
2383.0,O=C(O)c1cc(O)c(O)c(O)c1,O,mol_2383_solute_opt,mol_2383_solvent_opt,50,15,298.0,-1.05799595703623,Gallic acid,water
2384.0,CCCCCOC(=O)Nc1nc(=O)n([C@@H]2O[C@H](C)[C@@H](O)[C@H]2O)cc1F,O,mol_2384_solute_opt,mol_2384_solvent_opt,50,7,278.25,-1.3010180881174005,Capecitabine,water
2385.0,NC(N)=C([N+](=O)[O-])[N+](=O)[O-],O,mol_2385_solute_opt,mol_2385_solvent_opt,50,28,296.15,-2.955665265490922,"1,1-diamino-2,2-dinitroethylene (FOX-7)",water
2386.0,CC1(C)CCC2=C(O1)c1ccccc1C(=O)C2=O,O,mol_2386_solute_opt,mol_2386_solvent_opt,50,10,298.15,-3.802071230879218,β-lapachone,water
2387.0,Cn1cc([N+](=O)[O-])cn1,O,mol_2387_solute_opt,mol_2387_solvent_opt,50,31,283.15,-2.3806707376509624,1-methyl-4-nitropyrazole,water
2388.0,Nc1nc(N)nc(NC2CC2)n1,O,mol_2388_solute_opt,mol_2388_solvent_opt,50,10,283.15,-1.2863636877377744,Cyromazine,water
2389.0,O=c1ccc2ccccc2o1,O,mol_2389_solute_opt,mol_2389_solvent_opt,50,24,298.15,-1.8857473951599464,Coumarin,water
2390.0,COc1cc(/C=C/C(=O)CC(=O)/C=C/c2ccc(O)c(OC)c2)ccc1O,O,mol_2390_solute_opt,mol_2390_solvent_opt,50,6,298.15,-5.080826004428907,Curcumin,water
2391.0,O=C(O)c1ccc(-c2ccc(C(=O)O)o2)o1,O,mol_2391_solute_opt,mol_2391_solvent_opt,50,14,298.15,-4.272839876065852,"2,2′-bifuran-5,5′-dicarboxylic acid",water
2392.0,C1CCCC1,O,mol_2392_solute_opt,mol_2392_solvent_opt,50,27,276.5,-2.588637593231081,Cyclopentane,water
2393.0,CCC(C)C,O,mol_2393_solute_opt,mol_2393_solvent_opt,50,28,293.2,-3.163007452722545,i-pentane,water
2394.0,CCCCC,O,mol_2394_solute_opt,mol_2394_solvent_opt,50,25,286.65,-3.2145322247369066,n-pentane,water
2395.0,CCCCCC,O,mol_2395_solute_opt,mol_2395_solvent_opt,50,14,280.8,-3.762741619999085,n-hexane,water
2396.0,Cc1ccccc1,O,mol_2396_solute_opt,mol_2396_solvent_opt,50,15,295.7,-2.2064772411673683,Toluene,water
2397.0,C[C@@H]1O[C@@H](OC[C@H]2O[C@@H](Oc3cc(O)c4c(=O)cc(-c5ccccc5O)oc4c3)[C@H](O)[C@@H](O)[C@@H]2O)[C@H](O)[C@H](O)[C@H]1O,O,mol_2397_solute_opt,mol_2397_solvent_opt,50,7,288.2,-4.954463475381183,Apigenin 7-O-rhamnosylglucoside,water
2398.0,O=c1cc(-c2ccc(O)cc2)oc2cc(O)cc(O)c12,O,mol_2398_solute_opt,mol_2398_solvent_opt,50,15,288.2,-4.410395213883568,Apigenin,water
2399.0,N#Cc1ccc(NS(=O)(=O)c2ccc(N)cc2)cc1,O,mol_2399_solute_opt,mol_2399_solvent_opt,50,21,293.15,-3.6425687433440026,4-amino-N-(4-cyanophenyl)-benzene-sulfonamide,water
2400.0,Nc1ccc(S(=O)(=O)Nc2ccc([N+](=O)[O-])cc2)cc1,O,mol_2400_solute_opt,mol_2400_solvent_opt,50,22,293.15,-3.821842264857264,4-amino-N-(4-nitrophenyl)-benzene-sulfonamide,water
2401.0,O=[N+]([O-])c1ccc(NS(=O)(=O)c2ccccc2)cc1,O,mol_2401_solute_opt,mol_2401_solvent_opt,50,16,293.15,-4.09504371821163,N-(4-nitrophenyl)-benzene-sulfonamide,water
2402.0,O=C(O)c1cccnc1,O,mol_2402_solute_opt,mol_2402_solvent_opt,50,24,283.59,-1.0180988556151327,Nicotinic acid,water
2403.0,Cc1cc(Cl)ccc1NS(=O)(=O)c1ccc(N)cc1,O,mol_2403_solute_opt,mol_2403_solvent_opt,50,10,293.15,-4.1595017942975625,4-amino-N-(4-chloro-2-methylphenyl)-benzenesulfonamide,water
2404.0,Cc1cc(N)ccc1S(=O)(=O)Nc1ccc(Cl)cc1,O,mol_2404_solute_opt,mol_2404_solvent_opt,50,17,293.15,-4.57607662873239,4-amino-N-(4-chlorophenyl)-2-methyl-benzenesulfonamide,water
2405.0,Cc1cc(N)ccc1S(=O)(=O)Nc1ccccc1Cl,O,mol_2405_solute_opt,mol_2405_solvent_opt,50,15,293.15,-5.113397489553028,4-amino-N-(2-chlorophenyl)-2-methyl-benzenesulfonamide,water
2406.0,Cc1cc(N)ccc1S(=O)(=O)Nc1ccccc1[N+](=O)[O-],O,mol_2406_solute_opt,mol_2406_solvent_opt,50,12,293.15,-4.611973569182314,4-amino-2-methyl-N-(2-nitrophenyl)-benzenesulfonamide,water
2407.0,Cc1ccc(Cl)cc1NS(=O)(=O)c1ccc(N)cc1,O,mol_2407_solute_opt,mol_2407_solvent_opt,50,12,295.15,-4.467022844922907,4-amino-N-(5-chloro-2-methylphenyl)-benzenesulfonamide,water
2408.0,Cc1ccc(NS(=O)(=O)c2ccc(N)cc2)c(Cl)c1,O,mol_2408_solute_opt,mol_2408_solvent_opt,50,16,295.15,-4.407798816948999,4-amino-N-(2-chloro-4-methylphenyl)-benzenesulfonamide,water
2409.0,Cc1ccc(NS(=O)(=O)c2ccc(N)cc2)cc1Cl,O,mol_2409_solute_opt,mol_2409_solvent_opt,50,12,293.15,-5.1560417503353895,4-amino-N-(3-chloro-4-methylphenyl)-benzenesulfonamide,water
2410.0,Nc1ccc(S(=O)(=O)Nc2cc(Cl)c(Cl)cc2Cl)cc1,O,mol_2410_solute_opt,mol_2410_solvent_opt,50,19,293.15,-4.910059279310036,"4-amino-N-(2,4,5-trichlorophenyl)-benzenesulfonamide",water
2411.0,Nc1ccc(S(=O)(=O)Nc2cc(Cl)ccc2Cl)cc1,O,mol_2411_solute_opt,mol_2411_solvent_opt,50,14,293.15,-4.469660662240195,"4-amino-N-(2,5-dichlorophenyl)-benzenesulfonamide",water
2412.0,Nc1ccc(S(=O)(=O)Nc2ccc(Cl)c(Cl)c2)cc1,O,mol_2412_solute_opt,mol_2412_solvent_opt,50,19,293.15,-5.033695806499293,"4-amino-N-(3,4-dichlorophenyl)-benzenesulfonamide",water
2413.0,Nc1ccc(S(=O)(=O)Nc2ccc(Cl)cc2)c(Cl)c1,O,mol_2413_solute_opt,mol_2413_solvent_opt,50,15,293.15,-4.648957151070091,4-amino-2-chloro-N-(4-chlorophenyl)-benzenesulfonamide,water
2414.0,Nc1ccc(S(=O)(=O)Nc2ccc(Cl)cc2)cc1,O,mol_2414_solute_opt,mol_2414_solvent_opt,50,13,293.15,-4.292624123277398,4-amino-N-(4-chlorophenyl)-benzene-sulfonamide,water
2415.0,Nc1ccc(S(=O)(=O)Nc2ccccc2Cl)c(Cl)c1,O,mol_2415_solute_opt,mol_2415_solvent_opt,50,13,293.15,-5.235223005503199,4-amino-2-chloro-N-(2-chlorophenyl)-benzenesulfonamide,water
2416.0,Cn1c(=O)c2[nH]cnc2n(C)c1=O,O,mol_2416_solute_opt,mol_2416_solvent_opt,50,17,308.5,-1.6570928627829744,Theophylline,water
2417.0,Cn1c(=O)c2c(ncn2CCO)n(C)c1=O,O,mol_2417_solute_opt,mol_2417_solvent_opt,50,13,290.7,-0.8234258405751513,7-(β-hydroxyethyl) theophylline,water
2418.0,Cn1cnc2c1c(=O)[nH]c(=O)n2C,O,mol_2418_solute_opt,mol_2418_solvent_opt,50,18,293.15,-1.2543723057491851,Theobromine,water
2419.0,O=C(O)C1=C[C@@H](O)[C@@H](O)[C@H](O)C1,O,mol_2419_solute_opt,mol_2419_solvent_opt,50,15,299.55,0.1489971898819515,(-)-shikimic acid,water
2420.0,C=CC(=O)N1CCC[C@@H](n2nc(-c3ccc(Oc4ccccc4)cc3)c3c(N)ncnc32)C1,O,mol_2420_solute_opt,mol_2420_solvent_opt,50,7,298.15,-5.1015812290595886,Ibrutinib,water
2421.0,O=c1c(-c2ccc(O)cc2)coc2cc(O[C@@H]3O[C@H](CO)[C@@H](O)[C@H](O)[C@H]3O)ccc12,O,mol_2421_solute_opt,mol_2421_solvent_opt,50,8,283.2,-3.88090612809373,Daidzin,water
2422.0,COc1cc(-c2cc(=O)c3c(O)cc(O)cc3o2)cc(OC)c1O,O,mol_2422_solute_opt,mol_2422_solvent_opt,50,10,288.15,-7.557055302934004,Tricin,water
2423.0,CC1=C(O)C(=O)C(C)O1,O,mol_2423_solute_opt,mol_2423_solvent_opt,50,22,283.15,-0.2927530104403025,"4-hydroxy-2,5-dimethyl-3(2H)-furanone (DMHF)",water
2424.0,COc1ccc2nc(S(=O)Cc3ncc(C)c(OC)c3C)[nH]c2c1,O,mol_2424_solute_opt,mol_2424_solvent_opt,50,9,278.15,-2.646035210118136,Omeprazole,water
2425.0,CSCC[C@H](N)C(=O)O,O,mol_2425_solute_opt,mol_2425_solvent_opt,50,16,283.15,-0.5283578051035602,L-methionine,water
2426.0,CNC(=O)NC,O,mol_2426_solute_opt,mol_2426_solvent_opt,50,25,288.15,1.4984266095601115,"1,3-dimethylurea",water
2427.0,C=C(C)[C@@H]1CC[C@]2(CO)CC[C@]3(C)[C@H](CC[C@@H]4[C@@]5(C)CC[C@H](O)C(C)(C)[C@@H]5CC[C@]43C)[C@@H]12,O,mol_2427_solute_opt,mol_2427_solvent_opt,50,6,293.2,-3.654372794660381,Betulin,water
2428.0,C[C@]12CC[C@@H]3c4ccc(O)cc4CC[C@H]3[C@@H]1CCC2=O,O,mol_2428_solute_opt,mol_2428_solvent_opt,50,10,293.2,-3.177248065557068,Estrone,water
2429.0,O=C1c2cccc(O)c2C(=O)c2c(O)cc(CO)cc21,O,mol_2429_solute_opt,mol_2429_solvent_opt,50,15,278.15,-4.913224519121478,Aloe-emodin,water
2430.0,CC1(C)O[C@H]2CC(=O)OC[C@]23[C@H]2CC[C@@]4(C)[C@H](c5ccoc5)OC(=O)[C@H]5O[C@]54[C@]2(C)C(=O)C[C@@H]13,O,mol_2430_solute_opt,mol_2430_solvent_opt,50,9,283.2,-5.186368714417698,Limonin,water
2431.0,COc1c(O)cc2c(c1O)[C@@H]1O[C@H](CO)[C@@H](O)[C@H](O)[C@H]1OC2=O,O,mol_2431_solute_opt,mol_2431_solvent_opt,50,12,298.15,-2.377788571791989,Bergenin,water
2432.0,NCCCC(=O)O,O,mol_2432_solute_opt,mol_2432_solvent_opt,50,19,283.15,1.0515927277369117,4-aminobutyric acid,water
2433.0,O=[N+]([O-])c1cn[nH]c1,O,mol_2433_solute_opt,mol_2433_solvent_opt,50,30,278.15,-0.9339681362239348,4-nitropyrazole,water
2434.0,N[C@@H](Cc1cnc[nH]1)C(=O)O,O,mol_2434_solute_opt,mol_2434_solvent_opt,50,18,283.15,-0.7098004326076113,L-histidine,water
2435.0,Nc1ccccc1N,O,mol_2435_solute_opt,mol_2435_solvent_opt,50,28,283.15,-0.603804282505461,O-phenylenediamine,water
2436.0,CC(=O)[C@@]1(O)CC[C@H]2[C@@H]3CCC4=CC(=O)CC[C@]4(C)[C@H]3[C@@H](O)C[C@@]21C,O,mol_2436_solute_opt,mol_2436_solvent_opt,50,12,278.15,-3.1138780458494595,"11α,17α-dihydroxy-4-pregnene-3,20-dione",water
2437.0,C[C@@H]1CC[C@@]2(OC1)O[C@H]1C[C@H]3[C@@H]4CC=C5C[C@@H](O)CC[C@]5(C)[C@H]4CC[C@]3(C)[C@H]1[C@@H]2C,O,mol_2437_solute_opt,mol_2437_solvent_opt,50,7,293.2,-3.955403658915931,Diosgenin,water
2438.0,C[C@]12CC[C@@H]3c4ccc(O)cc4CC[C@H]3[C@@H]1C[C@@H](O)[C@@H]2O,O,mol_2438_solute_opt,mol_2438_solvent_opt,50,11,293.2,-2.195686736078722,Estriol,water
2439.0,NC(=O)c1cnccn1,O,mol_2439_solute_opt,mol_2439_solvent_opt,50,22,278.15,-1.234830633563296,Pyrazinamide,water
2440.0,CC(C)(C)[C@H](O)[C@H](Cc1ccc(Cl)cc1)n1cncn1,O,mol_2440_solute_opt,mol_2440_solvent_opt,50,10,278.15,-2.6574964339007616,Paclobutrazol,water
2441.0,Brc1cn[nH]c1,O,mol_2441_solute_opt,mol_2441_solvent_opt,50,32,283.15,-0.5725246281535722,4-bromopyrazole,water
2442.0,Nc1ncnc2c1ncn2[C@@H]1O[C@H](CO)[C@@H](O)[C@H]1O,O,mol_2442_solute_opt,mol_2442_solvent_opt,50,11,278.15,-1.975669574496712,Adenosine,water
2443.0,NC(=O)c1ncn([C@@H]2O[C@H](CO)[C@@H](O)[C@H]2O)n1,O,mol_2443_solute_opt,mol_2443_solvent_opt,50,14,278.15,-0.4894671732406992,Ribavirin(II),water
2444.0,Cc1cc(=O)[nH]c(=S)[nH]1,O,mol_2444_solute_opt,mol_2444_solvent_opt,50,20,278.15,-2.851829679779451,6-methyl-2-thiouracil,water
2445.0,Nc1ccc(S(=O)(=O)c2ccc(N)cc2)cc1,O,mol_2445_solute_opt,mol_2445_solvent_opt,50,14,278.15,-4.122427248549385,Dapsone,water
2446.0,N[C@@H](Cc1ccc(O)cc1)C(=O)O,O,mol_2446_solute_opt,mol_2446_solvent_opt,50,10,283.15,-2.8167359113864623,L-tyrosine,water
2447.0,Nc1ncnc2nc[nH]c12,O,mol_2447_solute_opt,mol_2447_solvent_opt,50,23,278.15,-2.5210639041078995,Adenine,water
2448.0,Clc1ncnc2nc[nH]c12,O,mol_2448_solute_opt,mol_2448_solvent_opt,50,27,283.15,-1.5480580591494737,6-chloropurine,water
2449.0,COC(=O)Nc1nc2ccccc2[nH]1,O,mol_2449_solute_opt,mol_2449_solvent_opt,50,11,278.15,-4.737396500949637,Carbendazim,water
2450.0,N[C@H](Cc1c[nH]c2ccccc12)C(=O)O,O,mol_2450_solute_opt,mol_2450_solvent_opt,50,12,283.15,-1.091671794101147,D-tryptophan,water
2451.0,NC(=NCCCCCCN=C(N)/N=C(\N)Nc1ccc(Cl)cc1)/N=C(\N)Nc1ccc(Cl)cc1,O,mol_2451_solute_opt,mol_2451_solvent_opt,50,10,283.15,-4.093797327390199,Chlorhexidine,water
2452.0,Cc1c(C(=O)/C=C/c2ccccc2)[n+](=O)c2ccccc2n1[O-],O,mol_2452_solute_opt,mol_2452_solvent_opt,50,13,283.15,-3.860087708988664,Quinocetone,water
2453.0,CCCc1cc(=O)[nH]c(=S)[nH]1,O,mol_2453_solute_opt,mol_2453_solvent_opt,50,17,278.15,-2.57492844521431,Propylthiouracil,water
2454.0,c1ccc2c(c1)CCc1ccccc1N2,O,mol_2454_solute_opt,mol_2454_solvent_opt,50,13,283.15,-4.33148492348092,Iminodibenzyl,water
2455.0,Cc1c(C(N)=O)cc([N+](=O)[O-])cc1[N+](=O)[O-],O,mol_2455_solute_opt,mol_2455_solvent_opt,50,19,283.15,-2.802586852029098,Dinitolmide,water
2456.0,C=NCC#N,O,mol_2456_solute_opt,mol_2456_solvent_opt,50,30,278.15,-1.336208589016867,Methyleneaminoacetonitrile,water
2457.0,O=c1cc(O)c(Cl)c[nH]1,O,mol_2457_solute_opt,mol_2457_solvent_opt,50,28,283.15,-2.020666796653218,Gimeracil,water
2458.0,COc1ccccc1N1CCN(CC(O)COc2cccc3ccccc23)CC1,O,mol_2458_solute_opt,mol_2458_solvent_opt,50,6,288.15,-3.94068393317226,Naftopidil,water
2459.0,Oc1c(Cl)cc(Cl)c2cccnc12,O,mol_2459_solute_opt,mol_2459_solvent_opt,50,23,293.15,-4.246536272178418,Chloroxine,water
2460.0,CC1(C)S[C@@H]2[C@H](NC(=O)[C@H](N)c3ccc(O)cc3)C(=O)N2[C@H]1C(=O)O,O,mol_2460_solute_opt,mol_2460_solvent_opt,50,11,278.15,-2.4650538561733297,Amoxicillin,water
2461.0,O=Cc1cc([N+](=O)[O-])ccc1O,O,mol_2461_solute_opt,mol_2461_solvent_opt,50,23,273.15,-2.721946916165644,5-nitrosalicylaldehyde,water
2462.0,NC(=O)N/N=C/c1ccc([N+](=O)[O-])o1,O,mol_2462_solute_opt,mol_2462_solvent_opt,50,21,278.15,-3.1347387408059544,5-nitrofurazone,water
2463.0,Oc1ccc(OCc2ccccc2)cc1,O,mol_2463_solute_opt,mol_2463_solvent_opt,50,13,283.15,-3.703216476394887,Monobenzone,water
2464.0,Cc1nnc(C(C)C)n1C1C[C@H]2CC[C@@H](C1)N2CC[C@H](NC(=O)C1CCC(F)(F)CC1)c1ccccc1,O,mol_2464_solute_opt,mol_2464_solvent_opt,50,5,278.15,-3.49749018500658,Maraviroc,water
2465.0,O=C(NC(Cc1cc(=O)[nH]c2ccccc12)C(=O)O)c1ccc(Cl)cc1,O,mol_2465_solute_opt,mol_2465_solvent_opt,50,10,278.15,-4.716194653542815,Rebamipide,water
2466.0,Cc1[nH]nc2cc([N+](=O)[O-])ccc12,O,mol_2466_solute_opt,mol_2466_solvent_opt,50,22,278.15,-2.942192987189658,3-methyl-6-nitroindazole,water
2467.0,O=c1ccc(-c2ccccc2)n[nH]1,O,mol_2467_solute_opt,mol_2467_solvent_opt,50,19,278.15,-3.853040956105024,6-phenyl-3(2H)-pyridazinone,water
2468.0,Cc1nc2n(c(=O)c1CCN1CCC(c3noc4cc(F)ccc34)CC1)CCCC2,O,mol_2468_solute_opt,mol_2468_solvent_opt,50,6,283.15,-5.590089773244248,Risperidone,water
2469.0,Oc1c(Br)cc(Br)c2cccnc12,O,mol_2469_solute_opt,mol_2469_solvent_opt,50,22,288.15,-4.464404556009418,"5,7-dibromo-8-hydroxyquinoline",water
2470.0,NCCC(=O)N[C@@H](Cc1cnc[nH]1)C(=O)O,O,mol_2470_solute_opt,mol_2470_solvent_opt,50,10,288.15,0.0899623728357398,L-carnosine,water
2471.0,C[C@@H](O)[C@H]1C(=O)N2C(C(=O)[O-])=C(SC3Cn4cnc[n+]4C3)[C@H](C)[C@H]12,O,mol_2471_solute_opt,mol_2471_solvent_opt,50,8,283.15,-1.745884085228692,Biapenem,water
2472.0,COc1cccc(C=O)c1O,O,mol_2472_solute_opt,mol_2472_solvent_opt,50,20,278.15,-1.8273960949393715,o-vanillin,water
2473.0,COc1ccc(-n2nc(C(N)=O)c3c2C(=O)N(c2ccc(N4CCCCC4=O)cc2)CC3)cc1,O,mol_2473_solute_opt,mol_2473_solvent_opt,50,6,288.15,-3.270100882938372,Apixaban,water
2474.0,CC(C)(Oc1ccc(CCNC(=O)c2ccc(Cl)cc2)cc1)C(=O)O,O,mol_2474_solute_opt,mol_2474_solvent_opt,50,10,283.15,-4.165505986802167,Bezafibrate,water
2475.0,CN1COCN(Cc2cnc(Cl)s2)C1=N[N+](=O)[O-],O,mol_2475_solute_opt,mol_2475_solvent_opt,50,11,278.15,-2.3927094076739017,Thiamethoxam,water
2476.0,COC1=CC(=O)C[C@@H](C)[C@]12Oc1c(Cl)c(OC)cc(OC)c1C2=O,O,mol_2476_solute_opt,mol_2476_solvent_opt,50,15,278.15,-4.969415357510797,Griseofulvin,water
2477.0,O=c1c2ccccc2nc2n1CCc1c-2[nH]c2ccccc12,O,mol_2477_solute_opt,mol_2477_solvent_opt,50,10,283.15,-7.0952960426028575,Rutaecarpine,water
2478.0,Clc1ccccc1C(c1ccccc1)(c1ccccc1)n1ccnc1,O,mol_2478_solute_opt,mol_2478_solvent_opt,50,7,278.15,-6.288333373173316,Clotrimazole,water
2479.0,O=c1cc(CO)occ1O,O,mol_2479_solute_opt,mol_2479_solvent_opt,50,28,278.15,-0.9210611892443028,Kojic acid,water
2480.0,CC(=O)Nc1ccc(OC(=O)c2ccccc2OC(C)=O)cc1,O,mol_2480_solute_opt,mol_2480_solvent_opt,50,12,278.15,-4.508546121526529,Benorilate,water
2481.0,CC(C)C(=O)Nc1ccc([N+](=O)[O-])c(C(F)(F)F)c1,O,mol_2481_solute_opt,mol_2481_solvent_opt,50,17,278.15,-4.87273005551882,Flutamide,water
2482.0,c1ccc2[nH]c(-c3cscn3)nc2c1,O,mol_2482_solute_opt,mol_2482_solvent_opt,50,18,283.15,-4.945708747916486,Thiabendazole,water
2483.0,CC(CO)(CO)C(=O)O,O,mol_2483_solute_opt,mol_2483_solvent_opt,50,19,288.15,-0.1263587947224015,Dimethylolpropionic acid,water
2484.0,O=c1cc(CBr)c2ccccc2[nH]1,O,mol_2484_solute_opt,mol_2484_solvent_opt,50,21,278.15,-3.5760356469075467,4-(bromomethyl)-2(1H)-quinolinone,water
2485.0,CC(=O)c1c(C)c([N+](=O)[O-])c(C(C)(C)C)c([N+](=O)[O-])c1C,O,mol_2485_solute_opt,mol_2485_solvent_opt,50,11,278.15,-2.907138035986668,Musk ketone,water
2486.0,Cn1c(=O)c2c(ncn2CC2OCCO2)n(C)c1=O,O,mol_2486_solute_opt,mol_2486_solvent_opt,50,15,278.15,-1.3345881994896684,Doxofylline,water
2487.0,CC(C)OC(=O)[C@H](C)N[P@](=O)(Oc1ccccc1)Oc1c(F)c(F)c(F)c(F)c1F,O,mol_2487_solute_opt,mol_2487_solvent_opt,50,9,278.15,-2.877057335267501,SOV-I2,water
2488.0,COC1CCC2(CC1)NC(=O)C(c1cc(C)ccc1C)=C2O,O,mol_2488_solute_opt,mol_2488_solvent_opt,50,9,288.15,-3.963768384912676,"cis-3-(2,5-dimethylphenyl)-4-hydroxy-8-methoxy-1-azaspiro[4.5]dec-3-en-2-one (si-vi)",water
2489.0,CC(=O)Oc1ccccc1C(=O)Nc1ncc([N+](=O)[O-])s1,O,mol_2489_solute_opt,mol_2489_solvent_opt,50,16,278.15,-5.154587885772398,Nitazoxanide,water
2490.0,O=C(Nc1ccc(F)cc1F)c1cccnc1Oc1cccc(C(F)(F)F)c1,O,mol_2490_solute_opt,mol_2490_solvent_opt,50,11,278.15,-5.074089455656358,Diflufenican,water
2491.0,COc1ccc(Cl)cc1C(=O)NCCc1ccc(S(=O)(=O)NC(=O)NC2CCCCC2)cc1,O,mol_2491_solute_opt,mol_2491_solvent_opt,50,7,288.15,-5.300818730771865,Glyburide,water
2492.0,CC(=O)Oc1ccc(C(c2ccc(OC(C)=O)cc2)c2ccccn2)cc1,O,mol_2492_solute_opt,mol_2492_solvent_opt,50,10,278.15,-5.283074173790358,Bisacodyl,water
2493.0,COc1cc(/C=C/C(=O)O)cc(OC)c1OC,O,mol_2493_solute_opt,mol_2493_solvent_opt,50,12,278.15,-2.5864031438749286,"3,4,5-trimethoxycinnamic acid",water