pair_id,SMILES_Solute,SMILES_Solvent,Solute_name,Solvent_name,Total_conformers,Filtered_conformers,Temperature_K,LogS,Compound_Name,Solvent
3142.0,c1ccc(-c2cc3ccccc3[nH]2)cc1,CCOC(C)=O,mol_3142_solute_opt,mol_3142_solvent_opt,50,42,289.05,-0.1575497092409251,2-phenyl-1H-indole,ethyl acetate
3143.0,C[C@]12CC[C@@H]3c4ccc(O)cc4CC[C@H]3[C@@H]1CC[C@@H]2O,CCOC(C)=O,mol_3143_solute_opt,mol_3143_solvent_opt,50,32,273.15,0.8952717176498579,Estradiol,ethyl acetate
3144.0,OC[C@H]1O[C@@H](c2ccc(Cl)c(Cc3ccc(O[C@H]4CCOC4)cc3)c2)[C@H](O)[C@@H](O)[C@@H]1O,CCOC(C)=O,mol_3144_solute_opt,mol_3144_solvent_opt,50,28,278.15,-5.127012990877023,Empagliflozin,ethyl acetate
3145.0,CCC(CO)(CO)C(=O)O,CCOC(C)=O,mol_3145_solute_opt,mol_3145_solvent_opt,50,43,298.15,-0.9440788277191422,"2,2-bis(hydroxymethyl)butyric acid",ethyl acetate
3146.0,O=C1OC(=O)C2C3C=CC(O3)C12,CCOC(C)=O,mol_3146_solute_opt,mol_3146_solvent_opt,50,47,278.15,-0.7791541568363148,"Exo-3,6-epoxy-1,2,3,6-tetrahydrophthalic anhydride",ethyl acetate
3147.0,Cc1ccc(S(=O)(=O)NC(=O)NN2CC3CCCC3C2)cc1,CCOC(C)=O,mol_3147_solute_opt,mol_3147_solvent_opt,50,41,278.15,-1.8157549161542816,Gliclazide,ethyl acetate
3148.0,Cn1nc([N+](=O)[O-])c([N+](=O)[O-])c1[N+](=O)[O-],CCOC(C)=O,mol_3148_solute_opt,mol_3148_solvent_opt,50,41,283.15,-1.3333311387196982,"1-methyl-3,4,5-trinitropyrazole",ethyl acetate
3149.0,O=C(c1ccc(F)cc1)c1ccc(F)cc1,CCOC(C)=O,mol_3149_solute_opt,mol_3149_solvent_opt,50,42,293.15,0.058114407562653,"4,4′-difluorobenzophenone",ethyl acetate
3150.0,O=[N+]([O-])c1cn[nH]c1[N+](=O)[O-],CCOC(C)=O,mol_3150_solute_opt,mol_3150_solvent_opt,50,46,283.15,-0.1275811176355631,"3,4-dinitro-1H-pyrazole",ethyl acetate
3151.0,CCCOC(=O)c1cc(O)c(O)c(O)c1,CCOC(C)=O,mol_3151_solute_opt,mol_3151_solvent_opt,50,45,293.15,0.4655966738185336,Propyl gallate,ethyl acetate
3152.0,O=C1c2ccccc2C(=O)N1O,CCOC(C)=O,mol_3152_solute_opt,mol_3152_solvent_opt,50,44,278.15,-1.6497694161523522,N-hydroxyphthalimide,ethyl acetate
3153.0,CC(=O)[C@H]1CC[C@H]2[C@@H]3CCC4=CC(=O)CC[C@]4(C)[C@H]3CC[C@]12C,CCOC(C)=O,mol_3153_solute_opt,mol_3153_solvent_opt,50,43,278.15,-0.8245139780887342,Progesterone,ethyl acetate
3154.0,CC(C)C(=O)Nc1ccc([N+](=O)[O-])c(C(F)(F)F)c1,CCOC(C)=O,mol_3154_solute_opt,mol_3154_solvent_opt,50,38,278.15,0.3019408659904184,Flutamide,ethyl acetate
3155.0,O=c1cc(-c2ccccc2)oc2cc(O)cc(O)c12,CCOC(C)=O,mol_3155_solute_opt,mol_3155_solvent_opt,50,42,293.2,-2.1350929787837605,Chrysin,ethyl acetate
3156.0,CO[C@H]1/C=C/O[C@@]2(C)Oc3c(C)c(O)c4c(O)c(c(/C=N/N5CCN(C)CC5)c(O)c4c3C2=O)NC(=O)/C(C)=C\C=C\[C@H](C)[C@H](O)[C@@H](C)[C@@H](O)[C@@H](C)[C@H](OC(C)=O)[C@@H]1C,CCOC(C)=O,mol_3156_solute_opt,mol_3156_solvent_opt,50,18,298.2,-2.2609052796696467,Rifampicin,ethyl acetate
3157.0,CS(=O)(=O)Nc1ccc([N+](=O)[O-])cc1Oc1ccccc1,CCOC(C)=O,mol_3157_solute_opt,mol_3157_solvent_opt,50,38,278.15,-0.8142149505203257,Nimesulide,ethyl acetate
3158.0,COc1ccc(C(=O)O)cc1,CCOC(C)=O,mol_3158_solute_opt,mol_3158_solvent_opt,50,39,273.15,-1.2521922709112276,4-methoxybenzoic acid,ethyl acetate
3159.0,N#CCNC(=O)c1cnccc1C(F)(F)F,CCOC(C)=O,mol_3159_solute_opt,mol_3159_solvent_opt,50,46,283.15,-0.9978270545480168,Flonicamid,ethyl acetate
3160.0,CC1Cc2ccccc2N1NC(=O)c1ccc(Cl)c(S(N)(=O)=O)c1,CCOC(C)=O,mol_3160_solute_opt,mol_3160_solvent_opt,50,39,278.15,-2.3237172785249114,Indapamide,ethyl acetate
3161.0,Nc1nc(NC2CC2)c2ncn([C@H]3C=C[C@@H](CO)C3)c2n1,CCOC(C)=O,mol_3161_solute_opt,mol_3161_solvent_opt,50,38,278.15,-2.181278625650056,Abacavir,ethyl acetate
3162.0,NS(=O)(=O)c1ccccc1C(=O)[O-],CCOC(C)=O,mol_3162_solute_opt,mol_3162_solvent_opt,50,41,273.15,-0.926237853905132,Methyl 2-sulfamoylbenzoate,ethyl acetate
3163.0,COc1cc(/C=C/C(=O)CC(=O)/C=C/c2ccc(O)c(OC)c2)ccc1O,CCOC(C)=O,mol_3163_solute_opt,mol_3163_solvent_opt,50,28,278.15,-1.7356486246119769,Curcumin,ethyl acetate
3164.0,O=[N+]([O-])c1cn[nH]c1,CCOC(C)=O,mol_3164_solute_opt,mol_3164_solvent_opt,50,48,288.15,-1.3014167352988946,4-nitropyrazole,ethyl acetate
3165.0,COc1ccc(C=O)cc1O,CCOC(C)=O,mol_3165_solute_opt,mol_3165_solvent_opt,50,44,278.15,-0.6655233942755129,Isovanillin,ethyl acetate
3166.0,O=[N+]([O-])c1cc[nH]n1,CCOC(C)=O,mol_3166_solute_opt,mol_3166_solvent_opt,50,45,283.15,-1.214157215422227,3-nitro-1H-pyrazole,ethyl acetate
3167.0,O=C(O)c1cc(=O)[nH]c(=O)[nH]1,CCOC(C)=O,mol_3167_solute_opt,mol_3167_solvent_opt,50,47,278.15,-4.94053316125742,Orotic acid,ethyl acetate
3168.0,Cn1cc[nH]c1=S,CCOC(C)=O,mol_3168_solute_opt,mol_3168_solvent_opt,50,46,278.15,-0.7735684316262965,Methimazole,ethyl acetate
3169.0,CC(=O)Nc1ccc(CC(=O)O)cc1,CCOC(C)=O,mol_3169_solute_opt,mol_3169_solvent_opt,50,40,278.15,-2.18431709186506,Actarit,ethyl acetate
3170.0,COc1cccc(C(=O)O)c1OC,CCOC(C)=O,mol_3170_solute_opt,mol_3170_solvent_opt,50,45,278.15,-0.8535855338548006,"2,3-dimethoxybenzoic acid",ethyl acetate
3171.0,C=C1CCN([C@H](C)[C@](O)(Cn2cncn2)c2ccc(F)cc2F)CC1,CCOC(C)=O,mol_3171_solute_opt,mol_3171_solvent_opt,50,34,288.15,0.4900383818481788,Efinaconazole,ethyl acetate
3172.0,OCCN1CCN(CCCN2c3ccccc3Sc3ccc(Cl)cc32)CC1,CCOC(C)=O,mol_3172_solute_opt,mol_3172_solvent_opt,50,30,278.15,-1.2183130854441893,Perphenazine,ethyl acetate
3173.0,O=[N+]([O-])c1cc([N+](=O)[O-])c(-c2nnc(-c3nnc(-c4c([N+](=O)[O-])cc([N+](=O)[O-])cc4[N+](=O)[O-])o3)o2)c([N+](=O)[O-])c1,CCOC(C)=O,mol_3173_solute_opt,mol_3173_solvent_opt,50,38,293.15,-2.691154835759172,"5,5′-bis(2,4,6-trinitrophenyl)-2,2′-bis(1,3,4-oxadiazole)",ethyl acetate
3174.0,O=C(O)CCC(=O)c1ccc(-c2ccccc2)cc1,CCOC(C)=O,mol_3174_solute_opt,mol_3174_solvent_opt,50,34,278.15,-2.023206656623044,Fenbufen,ethyl acetate
3175.0,CC(=O)c1cccc(O)c1,CCOC(C)=O,mol_3175_solute_opt,mol_3175_solvent_opt,50,44,289.15,0.2845477662730298,m-hydroxyacetophenone (m-HAP),ethyl acetate
3176.0,Cc1c(-c2ccccc2)oc2c(C(=O)O)cccc2c1=O,CCOC(C)=O,mol_3176_solute_opt,mol_3176_solvent_opt,50,34,278.15,-2.037061304588053,3-methylflavone-8-carboxylic acid,ethyl acetate
3177.0,CC(=O)c1c(C)c2cnc(Nc3ccc(N4CCNCC4)cn3)nc2n(C2CCCC2)c1=O,CCOC(C)=O,mol_3177_solute_opt,mol_3177_solvent_opt,50,33,293.15,-3.832161943944516,Palbociclib,ethyl acetate
3178.0,O=C(c1ccccc1)c1ccc(Cl)cc1,CCOC(C)=O,mol_3178_solute_opt,mol_3178_solvent_opt,50,39,278.15,0.1260378668858034,4-chlorobenzophenone,ethyl acetate
3179.0,O=c1c2ccccc2sc2ccc(Cl)cc12,CCOC(C)=O,mol_3179_solute_opt,mol_3179_solvent_opt,50,40,289.15,-1.421287679960711,2-chlorothioxanthone (CTX),ethyl acetate
3180.0,CC(N)=S,CCOC(C)=O,mol_3180_solute_opt,mol_3180_solvent_opt,50,49,272.85,-0.1395108992536303,Thioacetamide,ethyl acetate
3181.0,C1=CONN=C1,CCOC(C)=O,mol_3181_solute_opt,mol_3181_solvent_opt,50,44,293.15,-1.225330253259756,Oxadiazine,ethyl acetate
3182.0,O=[N+]([O-])c1cccc2ccccc12,CCOC(C)=O,mol_3182_solute_opt,mol_3182_solvent_opt,50,42,273.15,0.2428700225000744,1-nitronaphthalene,ethyl acetate
3183.0,Brc1cnc2[nH]ccc2c1,CCOC(C)=O,mol_3183_solute_opt,mol_3183_solvent_opt,50,43,278.15,-0.7680514086784352,5-bromo-7-azaindole,ethyl acetate
3184.0,O=[N+]([O-])c1cc([N+](=O)[O-])c(Nc2nc(Nc3c([N+](=O)[O-])cc([N+](=O)[O-])cc3[N+](=O)[O-])c([N+](=O)[O-])cc2[N+](=O)[O-])c([N+](=O)[O-])c1,CCOC(C)=O,mol_3184_solute_opt,mol_3184_solvent_opt,50,30,293.1,-3.0228998719155897,"2,6-bis(picrylamino)-3,5-dinitropyridine",ethyl acetate
3185.0,CCCN(CCc1cccs1)[C@H]1CCc2c(O)cccc2C1,CCOC(C)=O,mol_3185_solute_opt,mol_3185_solvent_opt,50,37,278.15,-0.5856363555314776,Rotigotine,ethyl acetate
3186.0,NC(=O)c1nc(F)cnc1O,CCOC(C)=O,mol_3186_solute_opt,mol_3186_solvent_opt,50,43,293.15,-1.432661908022514,Favipiravir,ethyl acetate
3187.0,COc1cc(C=O)ccc1O,CCOC(C)=O,mol_3187_solute_opt,mol_3187_solvent_opt,50,46,283.15,0.1047273480888733,Vanillin,ethyl acetate
3188.0,O=C(O)/C=C/c1ccc(O)cc1,CCOC(C)=O,mol_3188_solute_opt,mol_3188_solvent_opt,50,47,283.15,-1.0130102372252334,p-coumaric acid,ethyl acetate
3189.0,O=C(O)/C=C/c1ccccc1,CCOC(C)=O,mol_3189_solute_opt,mol_3189_solvent_opt,50,44,283.15,-0.2230302383754923,trans-cinnamic acid,ethyl acetate
3190.0,O=C1CCCCCCCCCCC1,CCOC(C)=O,mol_3190_solute_opt,mol_3190_solvent_opt,50,38,278.15,0.4009277367666513,Cyclododecanone,ethyl acetate
3191.0,C=C1C[C@]23C[C@@]1(O)CC[C@H]2[C@@]12C=C[C@H](O)[C@@](C)(C(=O)O1)[C@H]2[C@@H]3C(=O)O,CCOC(C)=O,mol_3191_solute_opt,mol_3191_solvent_opt,50,35,278.15,-0.1191760738605422,Gibberellin a3,ethyl acetate
3192.0,Nc1cccc2ccccc12,CCOC(C)=O,mol_3192_solute_opt,mol_3192_solvent_opt,50,40,273.15,1.0033285131156966,1-naphthylamine,ethyl acetate
3193.0,CCCCC(=O)N(Cc1ccc(-c2ccccc2-c2nn[nH]n2)cc1)[C@H](C(=O)O)C(C)C,CCOC(C)=O,mol_3193_solute_opt,mol_3193_solvent_opt,50,33,278.15,-1.8865653451274265,Valsartan,ethyl acetate
3194.0,CC(=O)N[C@@H](CCC(N)=O)C(=O)O,CCOC(C)=O,mol_3194_solute_opt,mol_3194_solvent_opt,50,38,283.15,-2.980242043372752,N-acetyl-L-glutamine,ethyl acetate
3195.0,Nc1cc(Cl)ccc1[N+](=O)[O-],CCOC(C)=O,mol_3195_solute_opt,mol_3195_solvent_opt,50,48,283.15,0.0528351659095106,5-chloro-2-nitroaniline,ethyl acetate
3196.0,Cc1ccc(CO)cc1,CCOC(C)=O,mol_3196_solute_opt,mol_3196_solvent_opt,50,41,278.15,0.4556424790305143,p-methylbenzyl alcohol,ethyl acetate
3197.0,NC(=O)Cc1ccc(O)cc1,CCOC(C)=O,mol_3197_solute_opt,mol_3197_solvent_opt,50,45,278.15,-1.750738473874665,4-hydroxyphenylacetamide,ethyl acetate
3198.0,CC1CCC(=O)C1=O,CCOC(C)=O,mol_3198_solute_opt,mol_3198_solvent_opt,50,46,278.15,-0.2774249863637275,"3-methyl-1,2-cyclopentanedione",ethyl acetate
3199.0,CCN(CC)C(=S)SSC(=S)N(CC)CC,CCOC(C)=O,mol_3199_solute_opt,mol_3199_solvent_opt,50,34,273.15,-1.125039672061084,Disulfiram,ethyl acetate
3200.0,CN(CCOc1ccc(CC2SC(=O)NC2=O)cc1)c1ccccn1,CCOC(C)=O,mol_3200_solute_opt,mol_3200_solvent_opt,50,38,283.15,-1.8946274791128124,Rosiglitazone,ethyl acetate
3201.0,CCCCCc1ccc2c(c1)C(=O)c1ccccc1C2=O,CCOC(C)=O,mol_3201_solute_opt,mol_3201_solvent_opt,50,30,288.15,-0.2651225279007665,2-amyl anthraquinone,ethyl acetate
3202.0,CCC[C@@H]1C[C@@H](C(=O)N[C@@H]([C@H]2O[C@H](SC)[C@H](O)[C@H]3OC(C)(C)O[C@H]32)[C@H](C)Cl)N(C)C1,CCOC(C)=O,mol_3202_solute_opt,mol_3202_solvent_opt,50,26,273.15,-1.1004452746137428,"3,4-o-isopropylidene clindamycin",ethyl acetate
3203.0,CC1(C)C[C@@H]1C(N)=O,CCOC(C)=O,mol_3203_solute_opt,mol_3203_solvent_opt,50,41,288.96,-0.751959041899528,"(S)-(+)-2,2-dimethyl-cyclopropane carbox amide",ethyl acetate
3204.0,ClCc1ccc(Cl)nc1,CCOC(C)=O,mol_3204_solute_opt,mol_3204_solvent_opt,50,46,278.35,-1.329057636028572,2-chloro-5-chloromethylpyridine,ethyl acetate
3205.0,O=C[C@H](O)[C@H](O)[C@H](O)CO,CCOC(C)=O,mol_3205_solute_opt,mol_3205_solvent_opt,50,44,283.15,-2.0418218204951644,D-ribose,ethyl acetate
3206.0,CC(C)(Oc1ccc(CCNC(=O)c2ccc(Cl)cc2)cc1)C(=O)O,CCOC(C)=O,mol_3206_solute_opt,mol_3206_solvent_opt,50,39,283.17,-2.2383658603605228,Bezafibrate,ethyl acetate
3207.0,N[C@@H](CS)C(=O)O,CCOC(C)=O,mol_3207_solute_opt,mol_3207_solvent_opt,50,42,283.15,-3.604385618209084,L-cysteine,ethyl acetate
3208.0,O=C(O)c1cc([N+](=O)[O-])cc([N+](=O)[O-])c1O,CCOC(C)=O,mol_3208_solute_opt,mol_3208_solvent_opt,50,45,278.15,-0.2984200666760417,"3,5-dinitrosalicylic acid",ethyl acetate
3209.0,CCCSc1nc(N[C@@H]2C[C@H]2c2ccc(F)c(F)c2)c2nnn([C@@H]3C[C@H](OCCO)[C@@H](O)[C@H]3O)c2n1,CCOC(C)=O,mol_3209_solute_opt,mol_3209_solvent_opt,50,26,273.15,-1.3655927862641124,Ticagrelor,ethyl acetate
3210.0,c1cnc2[nH]ccc2c1,CCOC(C)=O,mol_3210_solute_opt,mol_3210_solvent_opt,50,47,278.15,0.4426658793036393,7-azaindole,ethyl acetate
3211.0,O=C1N=c2ccccc2=N1,CCOC(C)=O,mol_3211_solute_opt,mol_3211_solvent_opt,50,43,283.15,-2.128837245357984,2-benzimidazolone,ethyl acetate
3212.0,CC(C)(c1ccc(O)cc1)c1ccc(O)cc1,CCOC(C)=O,mol_3212_solute_opt,mol_3212_solvent_opt,50,40,273.15,0.5081471086500285,Bisphenol A,ethyl acetate
3213.0,O=C(Nc1ccccc1)c1ccccc1,CCOC(C)=O,mol_3213_solute_opt,mol_3213_solvent_opt,50,38,274.15,-1.2799581053230438,Benzanilide,ethyl acetate
3214.0,O=C(O)Cc1ccc([N+](=O)[O-])cc1,CCOC(C)=O,mol_3214_solute_opt,mol_3214_solvent_opt,50,40,283.15,-0.4808723901764615,4-nitrophenylacetic acid,ethyl acetate
3215.0,C#C[C@]1(O)CC[C@H]2[C@@H]3CCC4=CC(=O)CC[C@@H]4[C@H]3C(=C)C[C@@]21CC,CCOC(C)=O,mol_3215_solute_opt,mol_3215_solvent_opt,50,37,273.15,-0.6940274941101353,Etonogestrel,ethyl acetate
3216.0,NS(=O)(=O)Cc1noc2ccccc12,CCOC(C)=O,mol_3216_solute_opt,mol_3216_solvent_opt,50,47,273.15,-1.279816930018845,Zonisamide,ethyl acetate
3217.0,CC(=O)Oc1ccccc1C(=O)Nc1ncc([N+](=O)[O-])s1,CCOC(C)=O,mol_3217_solute_opt,mol_3217_solvent_opt,50,38,273.15,-1.709860363464838,Nitazoxanide,ethyl acetate
3218.0,CC1=NN(c2ccccc2)C(=O)C1,CCOC(C)=O,mol_3218_solute_opt,mol_3218_solvent_opt,50,34,283.15,-0.8615755453860211,Edaravone,ethyl acetate
3219.0,Nc1cccc(Cl)c1C(=O)O,CCOC(C)=O,mol_3219_solute_opt,mol_3219_solvent_opt,50,38,278.15,-0.5608593799030706,2-amino-6-chlorobenzoic acid,ethyl acetate
3220.0,OCc1ccccc1O[C@@H]1OC(CO)[C@@H](O)[C@@H](O)C1O,CCOC(C)=O,mol_3220_solute_opt,mol_3220_solvent_opt,50,38,283.15,-4.067098181930571,D(−)-salicin,ethyl acetate
3221.0,OC[C@H]1O[C@@H](Oc2ccc(O)cc2)[C@H](O)[C@@H](O)[C@@H]1O,CCOC(C)=O,mol_3221_solute_opt,mol_3221_solvent_opt,50,38,283.15,-2.7942082640808463,β-Arbutin,ethyl acetate
3222.0,O=Cc1cc(Br)c(O)c(Br)c1,CCOC(C)=O,mol_3222_solute_opt,mol_3222_solvent_opt,50,47,278.15,-1.239168422106049,"3,5-dibromo-4-hydroxybenzaldehyde",ethyl acetate
3223.0,CC(C)OC(=O)C(C)(C)Oc1ccc(C(=O)c2ccc(Cl)cc2)cc1,CCOC(C)=O,mol_3223_solute_opt,mol_3223_solvent_opt,50,31,253.15,-0.4328968272832436,Fenofibrate,ethyl acetate
3224.0,NC(=O)c1ccccc1O,CCOC(C)=O,mol_3224_solute_opt,mol_3224_solvent_opt,50,44,253.15,-0.4695912348949038,Salicylamide,ethyl acetate
3225.0,O=C(O)c1ccccc1O,CCOC(C)=O,mol_3225_solute_opt,mol_3225_solvent_opt,50,44,253.15,-0.1990814373392167,Salicylic acid,ethyl acetate
3226.0,COc1cc2nc(Cl)nc(N)c2cc1OC,CCOC(C)=O,mol_3226_solute_opt,mol_3226_solvent_opt,50,40,273.15,-2.5352359839024503,"2-chloro-4-amino-6,7-dimethoxyquinazoline",ethyl acetate
3227.0,O=C(O)Cc1ccccc1[N+](=O)[O-],CCOC(C)=O,mol_3227_solute_opt,mol_3227_solvent_opt,50,39,283.15,-0.5175190436918645,2-nitrophenylacetic acid,ethyl acetate
3229.0,C=CC(=O)NC(C)(C)CS(=O)(=O)O,CCOC(C)=O,mol_3229_solute_opt,mol_3229_solvent_opt,50,46,283.15,-1.958430868146442,2-acrylamide-2-methylpropanesulfonic acid,ethyl acetate
3230.0,CCCOC(=O)c1ccc(O)cc1,CCOC(C)=O,mol_3230_solute_opt,mol_3230_solvent_opt,50,41,283.15,0.310243834650562,Propylparaben,ethyl acetate
3231.0,Nc1ccc(Cc2ccc(N)c(Cl)c2)cc1Cl,CCOC(C)=O,mol_3231_solute_opt,mol_3231_solvent_opt,50,41,283.15,0.1300000820132356,"4,4′-methylene-bis-(2-chloroaniline)",ethyl acetate
3232.0,c1ccc2[nH]c(-c3cscn3)nc2c1,CCOC(C)=O,mol_3232_solute_opt,mol_3232_solvent_opt,50,44,283.15,-2.3456295264096374,Thiabendazole,ethyl acetate
3233.0,CN1COCN(Cc2cnc(Cl)s2)C1=N[N+](=O)[O-],CCOC(C)=O,mol_3233_solute_opt,mol_3233_solvent_opt,50,38,278.15,-1.985860965038624,Thiamethoxam,ethyl acetate
3234.0,O=C(O)[C@@H]1C[C@@H](O)CN1,CCOC(C)=O,mol_3234_solute_opt,mol_3234_solvent_opt,50,45,283.15,-2.326398237498408,L-hydroxyproline,ethyl acetate
3235.0,CC(=O)O[C@]1(C(C)=O)CC[C@H]2[C@@H]3C=C(Cl)C4=CC(=O)[C@@H]5C[C@@H]5[C@]4(C)[C@H]3CC[C@@]21C,CCOC(C)=O,mol_3235_solute_opt,mol_3235_solvent_opt,50,37,273.15,-2.23093485274604,Cyproterone acetate,ethyl acetate
3236.0,OCC(O)COc1ccc(Cl)cc1,CCOC(C)=O,mol_3236_solute_opt,mol_3236_solvent_opt,50,41,288.15,-0.4068656151525681,Chlorphenesin,ethyl acetate
3237.0,CCn1c2ccccc2c2cc(-n3nncc3-c3ccccc3)ccc21,CCOC(C)=O,mol_3237_solute_opt,mol_3237_solvent_opt,50,33,278.9,-1.3750606351388228,MBQ-167,ethyl acetate
3238.0,NC(=O)[C@@H]1CCCN1,CCOC(C)=O,mol_3238_solute_opt,mol_3238_solvent_opt,50,43,278.15,-0.8502785844922673,L-prolinamide,ethyl acetate
3239.0,O=C(O)[C@@H]1CSCN1,CCOC(C)=O,mol_3239_solute_opt,mol_3239_solvent_opt,50,43,283.15,-3.622869458207785,L-thioproline,ethyl acetate
3240.0,O=C(O)c1cccc(O)c1O,CCOC(C)=O,mol_3240_solute_opt,mol_3240_solvent_opt,50,40,278.15,-0.2993110212443864,"2,3-dihydroxybenzoic acid",ethyl acetate
3241.0,O=C(Nc1ccccc1)c1ccccc1O,CCOC(C)=O,mol_3241_solute_opt,mol_3241_solvent_opt,50,43,283.15,-0.4323443027972278,Salicylanilide,ethyl acetate
3242.0,NC1CCSC1=O,CCOC(C)=O,mol_3242_solute_opt,mol_3242_solvent_opt,50,48,283.15,-2.607926951668089,DL-homocysteine thiolactone hydrochloride,ethyl acetate
3243.0,CC(=O)N1CCC[C@H]1C(=O)O,CCOC(C)=O,mol_3243_solute_opt,mol_3243_solvent_opt,50,41,283.15,-1.4171583128171417,N-acetyl-L-proline,ethyl acetate
3244.0,O=C(O)c1ccc(CO)cc1,CCOC(C)=O,mol_3244_solute_opt,mol_3244_solvent_opt,50,42,283.15,-1.3058458597446034,4-(hydroxymethyl) benzoic acid,ethyl acetate
3245.0,CC(=O)Nc1ccccc1[N+](=O)[O-],CCOC(C)=O,mol_3245_solute_opt,mol_3245_solvent_opt,50,40,278.15,-0.2810358074854904,o-nitroacetanilide,ethyl acetate
3246.0,COc1cc2c(cc1OC)C(=O)CC2,CCOC(C)=O,mol_3246_solute_opt,mol_3246_solvent_opt,50,33,283.15,-0.3769270247820769,"5,6-dimethoxy-1-indanone",ethyl acetate
3247.0,Cc1cc(Cl)cc(C(=O)O)c1N,CCOC(C)=O,mol_3247_solute_opt,mol_3247_solvent_opt,50,44,278.15,-1.1759044900856084,2-amino-5-chloro-3-methylbenzoic acid,ethyl acetate
3248.0,O=C(O)CNCc1ccccc1,CCOC(C)=O,mol_3248_solute_opt,mol_3248_solvent_opt,50,45,283.15,-3.9432098206895336,N-benzylglycine,ethyl acetate
3249.0,Nc1cccc(S(=O)(=O)c2cccc(N)c2)c1,CCOC(C)=O,mol_3249_solute_opt,mol_3249_solvent_opt,50,33,283.15,-0.8144711315633616,"3,3′-diaminodiphenyl sulfone",ethyl acetate
3250.0,CSCCC(NC(C)=O)C(=O)O,CCOC(C)=O,mol_3250_solute_opt,mol_3250_solvent_opt,50,44,283.15,-1.5602090011835985,N-acetyl-DL-methionine,ethyl acetate
3251.0,CCOC(=O)[C@@H](C)Oc1ccc(Oc2cnc3cc(Cl)ccc3n2)cc1,CCOC(C)=O,mol_3251_solute_opt,mol_3251_solvent_opt,50,33,278.15,-0.9833458332120528,Quizalofop-p-ethyl,ethyl acetate
3252.0,Cc1c(N)cccc1C(=O)O,CCOC(C)=O,mol_3252_solute_opt,mol_3252_solvent_opt,50,44,288.15,-2.004596793124406,3-amino-2-methylbenzoic acid,ethyl acetate
3253.0,O=C(O)COc1ccc(Cl)cc1,CCOC(C)=O,mol_3253_solute_opt,mol_3253_solvent_opt,50,41,283.15,-0.5485204552763431,4-chlorophenoxyacetic acid,ethyl acetate
3254.0,c1ccc(-n2c(-c3cc(-c4nc5ccccc5n4-c4ccccc4)cc(-c4nc5ccccc5n4-c4ccccc4)c3)nc3ccccc32)cc1,CCOC(C)=O,mol_3254_solute_opt,mol_3254_solvent_opt,50,21,283.15,-2.1324287891823848,"1,3,5-tris(1-phenyl-1H-benzimidazol-2-yl)benzene",ethyl acetate
3255.0,O=C(O)c1cccc(C(=O)O)n1,CCOC(C)=O,mol_3255_solute_opt,mol_3255_solvent_opt,50,45,278.15,-2.5891220868930245,"2,6-pyridinedicarboxylic acid",ethyl acetate
3256.0,CC(C)(C)OC(=O)N1CCC[C@H]1C(=O)O,CCOC(C)=O,mol_3256_solute_opt,mol_3256_solvent_opt,50,34,283.15,-0.6391313285417358,Boc-L-proline,ethyl acetate
3257.0,Nc1nc(=O)[nH]cc1F,CCOC(C)=O,mol_3257_solute_opt,mol_3257_solvent_opt,50,43,283.15,-4.440537718729712,5-fluorocytosine,ethyl acetate
3258.0,CNC(=O)c1cc(Oc2ccc(N)cc2)ccn1,CCOC(C)=O,mol_3258_solute_opt,mol_3258_solvent_opt,50,41,278.15,-0.2021007224459637,4-[2-(n-methylcarbamyl)-4-pyridyloxy]aniline,ethyl acetate
3259.0,O=C(N[C@H](C(=O)O)c1ccccc1)OCc1ccccc1,CCOC(C)=O,mol_3259_solute_opt,mol_3259_solvent_opt,50,41,283.15,-0.6544610974006747,N-carbobenzoxy-L-2-phenylglycine,ethyl acetate
3260.0,O=C(O)c1cccc([N+](=O)[O-])c1O,CCOC(C)=O,mol_3260_solute_opt,mol_3260_solvent_opt,50,46,278.15,-0.3162546771982952,3-nitrosalicylic acid,ethyl acetate
3261.0,CNC(=O)c1cc(Oc2ccc(NC(=O)Nc3ccc(Cl)c(C(F)(F)F)c3)cc2)ccn1,CCOC(C)=O,mol_3261_solute_opt,mol_3261_solvent_opt,50,32,273.15,-2.0567267597094814,Sorafenib,ethyl acetate
3262.0,O=C1CCc2cc(OCCCCc3nnnn3C3CCCCC3)ccc2N1,CCOC(C)=O,mol_3262_solute_opt,mol_3262_solvent_opt,50,37,273.15,-2.918028235479268,Cilostazol,ethyl acetate
3263.0,C#C[C@]1(O)C=C[C@H]2[C@@H]3CCC4=CC(=O)CC[C@@H]4[C@H]3CC[C@@]21CC,CCOC(C)=O,mol_3263_solute_opt,mol_3263_solvent_opt,50,37,283.15,-0.8138669852677877,Gestodene,ethyl acetate
3264.0,CSc1nc2cc(Oc3cccc(Cl)c3Cl)c(Cl)cc2[nH]1,CCOC(C)=O,mol_3264_solute_opt,mol_3264_solvent_opt,50,41,278.15,-0.9519923649032308,Triclabendazole,ethyl acetate
3265.0,COc1cc(C=O)cc(OC)c1OC,CCOC(C)=O,mol_3265_solute_opt,mol_3265_solvent_opt,50,37,278.15,-0.0566806161755907,"3,4,5-trimethoxybenzaldehyde",ethyl acetate
3266.0,O=C(O)CNC(=O)OCc1ccccc1,CCOC(C)=O,mol_3266_solute_opt,mol_3266_solvent_opt,50,44,283.15,-0.7096129643102725,N-carbobenzyloxyglycine,ethyl acetate