pair_id,SMILES_Solute,SMILES_Solvent,Solute_name,Solvent_name,Total_conformers,Filtered_conformers,Temperature_K,LogS,Compound_Name,Solvent
6254.0,ClP1(Cl)=NP(Cl)(Cl)=NP(Cl)(Cl)=N1,Cc1ccccc1,mol_6254_solute_opt,mol_6254_solvent_opt,50,46,298.15,-0.2354892133292359,Hexachlorocyclotriphosphazene,toluene
6255.0,O=[PH](O)c1ccccc1,Cc1ccccc1,mol_6255_solute_opt,mol_6255_solvent_opt,50,43,293.15,-0.7464491204376693,Phenylphosphinic acid,toluene
6256.0,c1ccc(OP2(Oc3ccccc3)=NP(Oc3ccccc3)(Oc3ccccc3)=NP(Oc3ccccc3)(Oc3ccccc3)=N2)cc1,Cc1ccccc1,mol_6256_solute_opt,mol_6256_solvent_opt,50,39,298.05,-0.2458174287128851,Hexaphenoxycyclotriphosphazene,toluene
6257.0,O=C1C=CC(=O)N1c1cc(F)c(Br)c(F)c1,Cc1ccccc1,mol_6257_solute_opt,mol_6257_solvent_opt,50,42,291.05,-1.532794531047987,"N-[(4-bromo-3,5-difluorine)-phenyl]maleimide",toluene
6258.0,O=C(O)CC(O)(CC(=O)O)C(=O)O,Cc1ccccc1,mol_6258_solute_opt,mol_6258_solvent_opt,50,44,288.15,-0.245237355771687,Citric acid,toluene
6259.0,c1ccc2c(c1)OP1(=NP3(=NP4(=N1)Oc1ccccc1O4)Oc1ccccc1O3)O2,Cc1ccccc1,mol_6259_solute_opt,mol_6259_solvent_opt,50,43,293.15,-2.202268832310418,Tris(o-phenylenedioxy)cyclotriphosphazene,toluene
6260.0,O=C1c2ccccc2-c2ccccc21,Cc1ccccc1,mol_6260_solute_opt,mol_6260_solvent_opt,50,41,283.15,0.1136559675989984,9-fluorenone,toluene
6261.0,c1ccc2c(c1)oc1ccccc12,Cc1ccccc1,mol_6261_solute_opt,mol_6261_solvent_opt,50,44,283.15,0.2505003502104868,"Dibenzo[b,d]furan",toluene
6262.0,Nc1ccc(Cl)nn1,Cc1ccccc1,mol_6262_solute_opt,mol_6262_solvent_opt,50,45,298.15,-3.328099235783484,6-chloropyridazin-3-amine,toluene
6263.0,C[C@@H]1OC(=O)[C@H](C)OC1=O,Cc1ccccc1,mol_6263_solute_opt,mol_6263_solvent_opt,50,41,278.55,-0.9082642850716228,L-lactide,toluene
6264.0,Clc1ccc(SSc2ccc(Cl)cc2)cc1,Cc1ccccc1,mol_6264_solute_opt,mol_6264_solvent_opt,50,40,303.2,-0.6811689856139039,"4,4′-dichlorodiphenyl disulfide",toluene
6265.0,O=C(O)[C@@H](O)CCc1ccccc1,Cc1ccccc1,mol_6265_solute_opt,mol_6265_solvent_opt,50,46,288.2,-1.909664233511988,(S)-2-hydroxy-4-phenylbutyric acid,toluene
6266.0,Nc1ccc(Sc2ccc([N+](=O)[O-])cc2)cc1,Cc1ccccc1,mol_6266_solute_opt,mol_6266_solvent_opt,50,46,289.75,-0.7544242019570427,4-amino-4′-nitrodiphenyl sulfide,toluene
6267.0,O=C(O)c1cccc(Cl)c1C(=O)c1ccccc1,Cc1ccccc1,mol_6267_solute_opt,mol_6267_solvent_opt,50,44,273.15,0.5752021308931926,2-benzoyl-3-chlorobenzoic acid,toluene
6268.0,O=C1c2ccccc2C(=O)c2c(Cl)cccc21,Cc1ccccc1,mol_6268_solute_opt,mol_6268_solvent_opt,50,34,273.15,-1.0504049498455903,1-Chloroanthraquinone,toluene
6269.0,c1ccc(CSSCc2ccccc2)cc1,Cc1ccccc1,mol_6269_solute_opt,mol_6269_solvent_opt,50,45,283.45,-0.2817982891516463,Benzyl disulfide,toluene
6270.0,O=P(Oc1ccccc1)(Oc1ccccc1)N1CCN(P(=O)(Oc2ccccc2)Oc2ccccc2)CC1,Cc1ccccc1,mol_6270_solute_opt,mol_6270_solvent_opt,50,36,293.15,-2.3221443651490685,"P,P′-(1,4-piperazinediyl)bis-,P,P,P′,P′-tetraphenyl ester (PAPBE)",toluene
6271.0,O=C(O)c1cc2ccccc2[nH]1,Cc1ccccc1,mol_6271_solute_opt,mol_6271_solvent_opt,50,44,287.85,-2.307445873355136,Indole-2-carboxylic acid,toluene
6272.0,CS(=O)(=O)c1ccc(F)cc1,Cc1ccccc1,mol_6272_solute_opt,mol_6272_solvent_opt,50,42,290.84,-0.3813687168501647,1-fluoro-4-(methylsulfonyl)benzene,toluene
6273.0,O=C(O)COC(=O)Cc1ccccc1Nc1c(Cl)cccc1Cl,Cc1ccccc1,mol_6273_solute_opt,mol_6273_solvent_opt,50,41,298.15,-2.3951695126898893,Aceclofenac,toluene
6274.0,O=C1Nc2ccccc2C1=O,Cc1ccccc1,mol_6274_solute_opt,mol_6274_solvent_opt,50,43,288.15,-2.254463917106674,Isatin,toluene
6275.0,CC(C)c1ccc2sc3ccccc3c(=O)c2c1,Cc1ccccc1,mol_6275_solute_opt,mol_6275_solvent_opt,50,37,304.65,0.6642867851164704,2-Isopropylthioxanthone (ITX),toluene
6276.0,Nc1ccc(Cc2ccc(N)cc2)cc1,Cc1ccccc1,mol_6276_solute_opt,mol_6276_solvent_opt,50,42,293.15,-0.8265359348058275,"4,4′-diaminodiphenylmethane",toluene
6277.0,O=C(c1ccccc1)c1ccc(O)cc1O,Cc1ccccc1,mol_6277_solute_opt,mol_6277_solvent_opt,50,39,298.2,-1.4661795413607004,"2,4-dihydroxybenzophenone",toluene
6278.0,c1ccc2c(c1)Cc1ccccc1-2,Cc1ccccc1,mol_6278_solute_opt,mol_6278_solvent_opt,50,42,283.27,-0.1912696153804801,Fluorene,toluene
6279.0,Nc1cccc(N)n1,Cc1ccccc1,mol_6279_solute_opt,mol_6279_solvent_opt,50,47,273.25,-1.843417195449905,"2,6-diaminopyridine",toluene
6280.0,C1=Cc2cccc3cccc1c23,Cc1ccccc1,mol_6280_solute_opt,mol_6280_solvent_opt,50,40,278.47,0.0458617958829749,Acenaphthylene,toluene
6281.0,CC1=CC(=O)c2ccccc2C1=O,Cc1ccccc1,mol_6281_solute_opt,mol_6281_solvent_opt,50,43,303.44,0.100881949867542,Vitamin K3,toluene
6282.0,O=P(O)(c1ccccc1)c1ccccc1,Cc1ccccc1,mol_6282_solute_opt,mol_6282_solvent_opt,50,42,293.15,-2.336079991650788,Diphenylphosphinic acid,toluene
6283.0,O=C1C=CC(=O)c2ccccc21,Cc1ccccc1,mol_6283_solute_opt,mol_6283_solvent_opt,50,43,294.1,-0.3286264075040586,"1,4-naphthoquinone",toluene
6284.0,c1ccc2oc(CSCc3nc4ccccc4o3)nc2c1,Cc1ccccc1,mol_6284_solute_opt,mol_6284_solvent_opt,50,43,274.15,-2.23349690701608,Bis(benzoxazolyl-2-methyl) sulfide,toluene
6285.0,c1ccc2ccccc2c1,Cc1ccccc1,mol_6285_solute_opt,mol_6285_solvent_opt,50,46,291.35,0.4725612121912741,Naphthalene,toluene
6286.0,O=C(O)CCCCC(=O)O,Cc1ccccc1,mol_6286_solute_opt,mol_6286_solvent_opt,50,44,298.15,-3.372706879060252,Adipic acid,toluene
6287.0,CC1=C(/C=C/C(C)=C/C=C/C(C)=C/C=C/C=C(C)/C=C/C=C(C)/C=C/C2=C(C)C(=O)CCC2(C)C)C(C)(C)CCC1=O,Cc1ccccc1,mol_6287_solute_opt,mol_6287_solvent_opt,50,32,293.15,-2.954555671050738,Canthaxanthin,toluene
6288.0,O=P(c1ccccc1)(c1ccccc1)c1ccccc1,Cc1ccccc1,mol_6288_solute_opt,mol_6288_solvent_opt,50,40,294.42,-0.5508279491355804,Triphenylphosphine oxide,toluene
6289.0,CP(=O)(c1ccccc1)c1ccccc1,Cc1ccccc1,mol_6289_solute_opt,mol_6289_solvent_opt,50,40,293.35,-0.6596069165569405,Methyldiphenylphosphine oxide,toluene
6290.0,CC1(C)[C@H](C(=O)O)N2C(=O)[C@@H](NC(=O)Cc3ccccc3)[C@H]2S1=O,Cc1ccccc1,mol_6290_solute_opt,mol_6290_solvent_opt,50,41,283.15,-3.584260614684148,Penicillin sulfoxide,toluene
6291.0,CCCCCCCCCCCCCCCc1cccc(O)c1,Cc1ccccc1,mol_6291_solute_opt,mol_6291_solvent_opt,50,39,295.25,0.1153901239806459,3-pentadecylphenol,toluene
6292.0,C=CC(=O)Nc1cc(F)c(Br)c(F)c1,Cc1ccccc1,mol_6292_solute_opt,mol_6292_solvent_opt,50,43,286.65,-2.245037870749176,"N-[(4-bromo-3,5-difluorine)phenyl]acrylamide",toluene
6293.0,O=P(c1ccccc1)(c1ccccc1)c1cc(O)ccc1O,Cc1ccccc1,mol_6293_solute_opt,mol_6293_solvent_opt,50,39,293.96,-2.1753021875318974,"(2,5-dihydroxyphenyl)diphenyl phosphine oxide",toluene
6294.0,CC(C)(C)C(=O)C(Oc1ccc(Cl)cc1)n1cncn1,Cc1ccccc1,mol_6294_solute_opt,mol_6294_solvent_opt,50,36,288.15,-0.020792373826117,Triadimefon,toluene
6295.0,c1ccc2cc3ccccc3cc2c1,CC(C)CO,mol_6295_solute_opt,mol_6295_solvent_opt,50,42,298.15,-2.295709756273511,Anthracene,isobutanol
6296.0,O=C(C(=O)c1ccccc1)c1ccccc1,CC(C)CO,mol_6296_solute_opt,mol_6296_solvent_opt,50,46,298.15,-0.9774591680596644,Benzil,isobutanol
6297.0,CCCCCCCCCCCCCCCCCCCCCC(=O)OCCO,CC(C)CO,mol_6297_solute_opt,mol_6297_solvent_opt,50,33,295.75,-2.966886204735815,Ethylene glycol monobehenate,isobutanol
6298.0,O=[N+]([O-])c1cccc2ccccc12,CC(C)CO,mol_6298_solute_opt,mol_6298_solvent_opt,50,44,298.15,-0.7218760100784414,1-nitronaphthalene,isobutanol
6299.0,O=C1c2ccccc2-c2ccccc21,CC(C)CO,mol_6299_solute_opt,mol_6299_solvent_opt,50,48,278.15,-0.7595306226587644,9-fluorenone,isobutanol
6300.0,CCOc1ccccc1C(N)=O,CC(C)CO,mol_6300_solute_opt,mol_6300_solvent_opt,50,39,288.15,-1.0484879648670804,Ethenzamide,isobutanol
6301.0,CCCCCOC(=O)Nc1nc(=O)n([C@@H]2O[C@H](C)[C@@H](O)[C@H]2O)cc1F,CC(C)CO,mol_6301_solute_opt,mol_6301_solvent_opt,50,37,278.26,-1.879827047016957,Capecitabine,isobutanol
6302.0,Cc1cc(C)c(C(=O)P(=O)(c2ccccc2)c2ccccc2)c(C)c1,CC(C)CO,mol_6302_solute_opt,mol_6302_solvent_opt,50,36,273.15,-0.0415081340490947,"(2,4,6-trimethylbenzoyl) diphenylphosphine oxide",isobutanol
6303.0,Nc1nc(N)nc(NC2CC2)n1,CC(C)CO,mol_6303_solute_opt,mol_6303_solvent_opt,50,38,283.15,-2.363389795205428,Cyromazine,isobutanol
6304.0,Sc1nc2ccccc2[nH]1,CC(C)CO,mol_6304_solute_opt,mol_6304_solvent_opt,50,47,283.15,-1.390597874163319,2-mercaptobenzimidazole,isobutanol
6305.0,C[C@@H]1CC[C@@]2(OC1)O[C@H]1C[C@H]3[C@@H]4CC=C5C[C@@H](O)CC[C@]5(C)[C@H]4CC[C@]3(C)[C@H]1[C@@H]2C,CC(C)CO,mol_6305_solute_opt,mol_6305_solvent_opt,50,32,305.15,-1.5961919902304915,Diosgenin,isobutanol
6306.0,O=C1NC(=O)c2ccccc21,CC(C)CO,mol_6306_solute_opt,mol_6306_solvent_opt,50,42,283.15,-1.814539004085336,Phthalimide,isobutanol
6307.0,O=C1c2cccc(Cl)c2C(=O)N1c1ccccc1,CC(C)CO,mol_6307_solute_opt,mol_6307_solvent_opt,50,43,288.15,-2.897359980996858,3-chloro-N-phenylphthalimide,isobutanol
6308.0,N=C(Nc1ccccc1)Nc1ccccc1,CC(C)CO,mol_6308_solute_opt,mol_6308_solvent_opt,50,38,273.15,-0.8578420383708121,"1,3-diphenylguanidine",isobutanol
6309.0,COC(=O)N(OC)c1ccccc1COc1ccn(-c2ccc(Cl)cc2)n1,CC(C)CO,mol_6309_solute_opt,mol_6309_solvent_opt,50,40,283.15,-1.5079536287501287,Pyraclostrobin,isobutanol
6310.0,C[C@@H]1O[C@@H](OC[C@H]2O[C@@H](Oc3c(-c4ccc(OCCO)c(OCCO)c4)oc4cc(OCCO)cc(O)c4c3=O)[C@H](O)[C@@H](O)[C@@H]2O)[C@H](O)[C@H](O)[C@H]1O,CC(C)CO,mol_6310_solute_opt,mol_6310_solvent_opt,50,22,288.15,-3.350934841454915,Troxerutin,isobutanol
6311.0,S=c1[nH]c2ccccc2s1,CC(C)CO,mol_6311_solute_opt,mol_6311_solvent_opt,50,41,273.15,-0.9495309145539336,2-mercaptobenzothiazole,isobutanol
6312.0,O=C1NS(=O)(=O)c2ccccc21,CC(C)CO,mol_6312_solute_opt,mol_6312_solvent_opt,50,47,278.15,-1.7010182558453706,Saccharin,isobutanol
6313.0,O=P1(O)Oc2ccc3ccccc3c2-c2c(ccc3ccccc23)O1,CC(C)CO,mol_6313_solute_opt,mol_6313_solvent_opt,50,37,288.15,-1.4175236062425485,"1,1′-binaphthyl-2,2′-diyl hydrogenphosphate",isobutanol
6314.0,COCCOC(=O)C1=C(C)NC(C)=C(C(=O)OC(C)C)C1c1cccc([N+](=O)[O-])c1,CC(C)CO,mol_6314_solute_opt,mol_6314_solvent_opt,50,33,278.15,-1.1076638778130945,Nimodipine,isobutanol
6315.0,CC(=O)Nc1ccc(OC(=O)c2ccccc2OC(C)=O)cc1,CC(C)CO,mol_6315_solute_opt,mol_6315_solvent_opt,50,34,278.15,-2.6497648434442254,Benorilate,isobutanol
6316.0,CN1CCN(C2=Nc3cc(Cl)ccc3Nc3ccccc32)CC1,CC(C)CO,mol_6316_solute_opt,mol_6316_solvent_opt,50,37,278.15,-1.1333699755962536,Clozapine,isobutanol
6317.0,CC(=O)Nc1ccc(C(=O)O)cc1,CC(C)CO,mol_6317_solute_opt,mol_6317_solvent_opt,50,36,283.15,-1.414255456912034,p-acetamidobenzoic acid,isobutanol
6318.0,O=C(O)COc1ccc(Cl)cc1Cl,CC(C)CO,mol_6318_solute_opt,mol_6318_solvent_opt,50,38,278.15,-0.4444342856179706,"2,4-dichlorophenoxyacetic acid",isobutanol
6319.0,S=C(Nc1ccccc1)Nc1ccccc1,CC(C)CO,mol_6319_solute_opt,mol_6319_solvent_opt,50,39,283.15,-1.9424318736087824,"N,N'-diphenyl thiourea (DPTU)",isobutanol
6320.0,O=C1CCc2cc(O)ccc2N1,CC(C)CO,mol_6320_solute_opt,mol_6320_solvent_opt,50,37,278.15,-1.9001805772218168,"6-hydroxy-3,4-dihydro-2(1H)-quinolone",isobutanol
6321.0,O=C(O)COc1ccc2ccccc2c1,CC(C)CO,mol_6321_solute_opt,mol_6321_solvent_opt,50,43,278.15,-1.2112026384514998,2-naphthoxyacetic acid,isobutanol
6322.0,CC(=O)N1CCN(c2ccc(O)cc2)CC1,CC(C)CO,mol_6322_solute_opt,mol_6322_solvent_opt,50,40,283.15,-1.9264869601327168,1-[4-(4-hydroxyphenyl)piperazin-1-yl]ethenone,isobutanol
6323.0,CC(C)(C)C(=O)C(Oc1ccc(Cl)cc1)n1ccnc1,CC(C)CO,mol_6323_solute_opt,mol_6323_solvent_opt,50,41,288.15,0.0722830335371098,Climbazole,isobutanol
6324.0,Clc1cccnc1Cl,CC(C)CO,mol_6324_solute_opt,mol_6324_solvent_opt,50,46,278.15,-0.3463005360974861,"2,3-dichloropyridine",isobutanol
6325.0,Nc1nc(N)c2nc(-c3ccccc3)c(N)nc2n1,CC(C)CO,mol_6325_solute_opt,mol_6325_solvent_opt,50,40,283.15,-4.502041503070966,Triamterene,isobutanol
6326.0,O=C(O)/C=C/c1ccc(Cl)cc1,CC(C)CO,mol_6326_solute_opt,mol_6326_solvent_opt,50,41,283.15,-1.9542508371105864,trans-4-chlorocinnamic acid,isobutanol
6327.0,CCOc1ccc2ccccc2c1C(=O)O,CC(C)CO,mol_6327_solute_opt,mol_6327_solvent_opt,50,35,278.15,-0.9089175422182352,2-ethoxy-1-naphthoic acid,isobutanol
6328.0,NC(N)=O,CC(C)CO,mol_6328_solute_opt,mol_6328_solvent_opt,50,45,293.15,-0.7278669713633097,Urea,isobutanol
6329.0,Cc1cccc(N(C)C(=S)Oc2ccc3ccccc3c2)c1,CC(C)CO,mol_6329_solute_opt,mol_6329_solvent_opt,50,37,283.15,-2.225750792374248,Tolnaftate,isobutanol
6330.0,O=C(O)c1cccc([N+](=O)[O-])c1,CC(C)CO,mol_6330_solute_opt,mol_6330_solvent_opt,50,46,298.2,0.1371784704364151,3-nitrobenzoic acid,isobutanol
6331.0,O=C(O)/C=C/c1ccc(O)c(O)c1,CC(C)CO,mol_6331_solute_opt,mol_6331_solvent_opt,50,41,293.15,-1.2860832447509056,Caffeic acid,isobutanol
6332.0,Cc1c(OCC(F)(F)F)ccnc1CS(=O)c1nc2ccccc2[nH]1,CC(C)CO,mol_6332_solute_opt,mol_6332_solvent_opt,50,37,278.15,-1.320104946447246,Lansoprazole,isobutanol
6333.0,CCN(CC)CC(=O)Nc1c(C)cccc1C,CC(C)CO,mol_6333_solute_opt,mol_6333_solvent_opt,50,36,292.15,-1.1496506806726507,Lidocaine,isobutanol
6334.0,NCCCCCCN,CC(C)CO,mol_6334_solute_opt,mol_6334_solvent_opt,50,41,278.15,0.4189212643524675,"1,6-hexanediamine",isobutanol
6335.0,Cc1occc(=O)c1O,CC(C)CO,mol_6335_solute_opt,mol_6335_solvent_opt,50,44,288.15,-1.156410269136078,Maltol,isobutanol
6336.0,O=c1[nH]c2ccccc2n1CCCN1CCC(n2c(=O)[nH]c3cc(Cl)ccc32)CC1,CC(C)CO,mol_6336_solute_opt,mol_6336_solvent_opt,50,37,278.15,-3.937876335495228,Domperidone,isobutanol
6337.0,Cc1cc(=O)n(-c2ccccc2)n1C,CC(C)CO,mol_6337_solute_opt,mol_6337_solvent_opt,50,40,288.15,0.2829358287279452,Antipyrine,isobutanol
6338.0,O=C(O)c1cccc2ccccc12,CC(C)CO,mol_6338_solute_opt,mol_6338_solvent_opt,50,43,293.15,-0.686196153180842,1-naphthoic acid,isobutanol
6339.0,Nc1ccc(S(=O)(=O)c2ccc(N)cc2)cc1,CC(C)CO,mol_6339_solute_opt,mol_6339_solvent_opt,50,30,283.15,-2.1075776037658143,Dapsone,isobutanol
6340.0,NC(=O)c1ccccc1,CC(C)CO,mol_6340_solute_opt,mol_6340_solvent_opt,50,41,283.15,-0.5211540523133306,Benzamide,isobutanol
6341.0,NC(=O)Cc1ccccc1,CC(C)CO,mol_6341_solute_opt,mol_6341_solvent_opt,50,39,273.75,-1.1553187449997473,2-phenylacetamide,isobutanol
6342.0,COC(=O)c1cc(O)c(O)c(O)c1,CC(C)CO,mol_6342_solute_opt,mol_6342_solvent_opt,50,41,293.15,-0.6559584549379617,Methyl gallate,isobutanol
6343.0,Cc1ccc(S(N)(=O)=O)cc1,CC(C)CO,mol_6343_solute_opt,mol_6343_solvent_opt,50,44,273.15,-1.2962502825942408,p-Toluenesulfonamide,isobutanol
6344.0,CC1(C)[C@H](C(=O)O)[C@@H]1/C=C(\Cl)C(F)(F)F,CC(C)CO,mol_6344_solute_opt,mol_6344_solvent_opt,50,34,283.15,-0.0844375076774684,Cyhalothric acid,isobutanol
6345.0,CC(C)C(N)=O,CC(C)CO,mol_6345_solute_opt,mol_6345_solvent_opt,50,39,273.15,-0.2172282164153293,Isobutyramide,isobutanol
6346.0,Cc1ccc(S(=O)(=O)NC(=O)NN2CC3CCCC3C2)cc1,CC(C)CO,mol_6346_solute_opt,mol_6346_solvent_opt,50,46,278.15,-2.336383039770887,Gliclazide,isobutanol
6347.0,CCc1cccc2c3c([nH]c12)C(CC)(CC(=O)O)OCC3,CC(C)CO,mol_6347_solute_opt,mol_6347_solvent_opt,50,34,278.15,-0.598604186109948,Etodolac,isobutanol
6348.0,O=C(c1ccc(F)cc1)c1ccc(F)cc1,CC(C)CO,mol_6348_solute_opt,mol_6348_solvent_opt,50,45,293.15,-0.9747574196931772,"4,4′-difluorobenzophenone",isobutanol
6349.0,O=[N+]([O-])c1cn[nH]c1[N+](=O)[O-],CC(C)CO,mol_6349_solute_opt,mol_6349_solvent_opt,50,44,283.15,0.5242002487954837,"3,4-dinitro-1H-pyrazole",isobutanol
6350.0,CCCOC(=O)c1cc(O)c(O)c(O)c1,CC(C)CO,mol_6350_solute_opt,mol_6350_solvent_opt,50,38,293.15,0.4025280660370721,Propyl gallate,isobutanol
6351.0,COc1ccc2[nH]cc(CCNC(C)=O)c2c1,CC(C)CO,mol_6351_solute_opt,mol_6351_solvent_opt,50,38,278.15,-1.3491907577227256,Melatonin,isobutanol
6352.0,CC(C)C(=O)Nc1ccc([N+](=O)[O-])c(C(F)(F)F)c1,CC(C)CO,mol_6352_solute_opt,mol_6352_solvent_opt,50,33,278.15,-0.4582200432020478,Flutamide,isobutanol
6353.0,N#CCNC(=O)c1cnccc1C(F)(F)F,CC(C)CO,mol_6353_solute_opt,mol_6353_solvent_opt,50,41,283.15,-1.777653364270817,Flonicamid,isobutanol
6354.0,Nc1nc(NC2CC2)c2ncn([C@H]3C=C[C@@H](CO)C3)c2n1,CC(C)CO,mol_6354_solute_opt,mol_6354_solvent_opt,50,36,278.15,-1.068625296818369,Abacavir,isobutanol
6355.0,NS(=O)(=O)c1ccccc1C(=O)[O-],CC(C)CO,mol_6355_solute_opt,mol_6355_solvent_opt,50,44,272.15,-2.128860425356881,Methyl 2-sulfamoylbenzoate,isobutanol
6356.0,O=[N+]([O-])c1cn[nH]c1,CC(C)CO,mol_6356_solute_opt,mol_6356_solvent_opt,50,46,288.15,-0.1997256321959285,4-nitropyrazole,isobutanol
6357.0,COc1ccc(C=O)cc1O,CC(C)CO,mol_6357_solute_opt,mol_6357_solvent_opt,50,45,278.15,-1.0212340793080257,Isovanillin,isobutanol
6358.0,CC1(C)O[C@@H]2[C@@H](CO[C@@]3(COS(N)(=O)=O)OC(C)(C)O[C@@H]23)O1,CC(C)CO,mol_6358_solute_opt,mol_6358_solvent_opt,50,49,278.15,-1.3838206826589108,Topiramate,isobutanol
6359.0,Cn1cc[nH]c1=S,CC(C)CO,mol_6359_solute_opt,mol_6359_solvent_opt,50,40,278.15,-0.6723990224095806,Methimazole,isobutanol
6360.0,O=c1[nH]cc(F)c(=O)[nH]1,CC(C)CO,mol_6360_solute_opt,mol_6360_solvent_opt,50,45,283.15,-2.162662109932804,5-fluorouracil,isobutanol
6361.0,CC(=O)c1cccc(O)c1,CC(C)CO,mol_6361_solute_opt,mol_6361_solvent_opt,50,41,289.15,0.1654535901028411,m-hydroxyacetophenone (m-HAP),isobutanol
6362.0,Cc1c(-c2ccccc2)oc2c(C(=O)O)cccc2c1=O,CC(C)CO,mol_6362_solute_opt,mol_6362_solvent_opt,50,41,278.15,-1.9850234149778925,3-methylflavone-8-carboxylic acid,isobutanol
6363.0,O=C(c1ccccc1)c1ccc(Cl)cc1,CC(C)CO,mol_6363_solute_opt,mol_6363_solvent_opt,50,45,278.15,-0.9463448687216732,4-chlorobenzophenone,isobutanol
6364.0,CC(N)=S,CC(C)CO,mol_6364_solute_opt,mol_6364_solvent_opt,50,44,273.15,-0.4340685319013611,Thioacetamide,isobutanol
6365.0,Oc1ccc([C@@H]2COc3cc(O)ccc3C2)cc1,CC(C)CO,mol_6365_solute_opt,mol_6365_solvent_opt,50,40,273.15,-0.7084574609232666,(R)-equol,isobutanol
6366.0,O=C1O[C@H](CO)[C@@H](O)[C@H](O)[C@H]1O,CC(C)CO,mol_6366_solute_opt,mol_6366_solvent_opt,50,41,288.15,-2.5714602014570733,"1,5-gluconolactone",isobutanol
6367.0,O=C1CCCCCCCCCCC1,CC(C)CO,mol_6367_solute_opt,mol_6367_solvent_opt,50,41,278.15,0.0610860315501807,Cyclododecanone,isobutanol
6368.0,Nc1cccc2ccccc12,CC(C)CO,mol_6368_solute_opt,mol_6368_solvent_opt,50,48,273.15,-0.1648449507104931,1-naphthylamine,isobutanol
6369.0,CCCCC(=O)N(Cc1ccc(-c2ccccc2-c2nn[nH]n2)cc1)[C@H](C(=O)O)C(C)C,CC(C)CO,mol_6369_solute_opt,mol_6369_solvent_opt,50,35,278.15,-0.9069454473173028,Valsartan,isobutanol
6370.0,CC(=O)N[C@@H](CCC(N)=O)C(=O)O,CC(C)CO,mol_6370_solute_opt,mol_6370_solvent_opt,50,36,283.15,-2.5020684299710454,N-acetyl-L-glutamine,isobutanol
6371.0,Nc1cc(Cl)ccc1[N+](=O)[O-],CC(C)CO,mol_6371_solute_opt,mol_6371_solvent_opt,50,46,283.15,-0.8935784905023827,5-chloro-2-nitroaniline,isobutanol
6372.0,Cc1c(C(=O)O)cccc1[N+](=O)[O-],CC(C)CO,mol_6372_solute_opt,mol_6372_solvent_opt,50,45,278.15,-0.9831411334825988,2-methyl-3-nitrobenzoic acid,isobutanol
6373.0,Cc1ccc(CO)cc1,CC(C)CO,mol_6373_solute_opt,mol_6373_solvent_opt,50,43,278.15,0.5186908391055415,p-methylbenzyl alcohol,isobutanol
6374.0,CC1CCC(=O)C1=O,CC(C)CO,mol_6374_solute_opt,mol_6374_solvent_opt,50,44,278.15,-0.3465299764598303,"3-methyl-1,2-cyclopentanedione",isobutanol
6375.0,CCN(CC)C(=S)SSC(=S)N(CC)CC,CC(C)CO,mol_6375_solute_opt,mol_6375_solvent_opt,50,38,273.15,-1.9526311151169848,Disulfiram,isobutanol
6376.0,CCC[C@@H]1C[C@@H](C(=O)N[C@@H]([C@H]2O[C@H](SC)[C@H](O)[C@H]3OC(C)(C)O[C@H]32)[C@H](C)Cl)N(C)C1,CC(C)CO,mol_6376_solute_opt,mol_6376_solvent_opt,50,35,273.15,-0.8082975065347062,"3,4-o-isopropylidene clindamycin",isobutanol
6377.0,O=C[C@H](O)[C@H](O)[C@H](O)CO,CC(C)CO,mol_6377_solute_opt,mol_6377_solvent_opt,50,41,283.15,-1.4360083922561462,D-ribose,isobutanol
6378.0,CC(C)(Oc1ccc(CCNC(=O)c2ccc(Cl)cc2)cc1)C(=O)O,CC(C)CO,mol_6378_solute_opt,mol_6378_solvent_opt,50,32,282.95,-1.9010231041053525,Bezafibrate,isobutanol
6379.0,N[C@@H](CS)C(=O)O,CC(C)CO,mol_6379_solute_opt,mol_6379_solvent_opt,50,43,283.15,-3.5466013727814425,L-cysteine,isobutanol
6380.0,O=C(O)c1cc([N+](=O)[O-])cc([N+](=O)[O-])c1O,CC(C)CO,mol_6380_solute_opt,mol_6380_solvent_opt,50,41,278.15,-0.8107067331864815,"3,5-dinitrosalicylic acid",isobutanol
6381.0,CCCSc1nc(N[C@@H]2C[C@H]2c2ccc(F)c(F)c2)c2nnn([C@@H]3C[C@H](OCCO)[C@@H](O)[C@H]3O)c2n1,CC(C)CO,mol_6381_solute_opt,mol_6381_solvent_opt,50,32,273.15,-1.7856056602002486,Ticagrelor,isobutanol
6382.0,O=C1N=c2ccccc2=N1,CC(C)CO,mol_6382_solute_opt,mol_6382_solvent_opt,50,45,283.15,-1.738847558877446,2-benzimidazolone,isobutanol
6383.0,O=C(Nc1ccccc1)c1ccccc1,CC(C)CO,mol_6383_solute_opt,mol_6383_solvent_opt,50,37,274.15,-1.706859749962511,Benzanilide,isobutanol
6384.0,O=C(O)Cc1ccc([N+](=O)[O-])cc1,CC(C)CO,mol_6384_solute_opt,mol_6384_solvent_opt,50,44,283.15,-0.5533638640877773,4-nitrophenylacetic acid,isobutanol