pair_id,SMILES_Solute,SMILES_Solvent,Solute_name,Solvent_name,Total_conformers,Filtered_conformers,Temperature_K,LogS,Compound_Name,Solvent
4027.0,CC(=O)Oc1ccc(C2CC(=O)c3c(OC(C)=O)cc(OC(C)=O)cc3O2)cc1,CCCO,mol_4027_solute_opt,mol_4027_solvent_opt,50,33,278.2,-2.054653023054972,"4′,5,7-triacetoxyflavanone",n-propanol
4028.0,Cn1c(=O)c2[nH]cnc2n(C)c1=O,CCCO,mol_4028_solute_opt,mol_4028_solvent_opt,50,36,288.01,-1.9110854293701869,Theophylline,n-propanol
4029.0,Cn1cnc2c1c(=O)[nH]c(=O)n2C,CCCO,mol_4029_solute_opt,mol_4029_solvent_opt,50,39,288.15,-3.799819130203501,Theobromine,n-propanol
4030.0,CC(=O)Nc1ccc(O)cc1,CCCO,mol_4030_solute_opt,mol_4030_solvent_opt,50,36,293.05,-0.2405315362085564,Paracetamol,n-propanol
4031.0,N#Cc1cccnc1,CCCO,mol_4031_solute_opt,mol_4031_solvent_opt,50,45,268.15,-0.2060619839971042,3-cyanopyridine,n-propanol
4032.0,On1nnc2ccccc21,CCCO,mol_4032_solute_opt,mol_4032_solvent_opt,50,37,278.15,-0.3810061510596836,1-hydroxybenzotriazole,n-propanol
4033.0,CS(=O)(=O)c1ccc([C@@H](O)[C@@H](CO)NC(=O)C(Cl)Cl)cc1,CCCO,mol_4033_solute_opt,mol_4033_solvent_opt,50,35,278.15,-3.159054890505948,Thiamphenicol,n-propanol
4034.0,N#Cc1cccc([N+](=O)[O-])c1,CCCO,mol_4034_solute_opt,mol_4034_solvent_opt,50,45,278.15,-1.4686535447708662,3-nitrobenzonitrile,n-propanol
4035.0,OC/C=C/c1ccccc1,CCCO,mol_4035_solute_opt,mol_4035_solvent_opt,50,36,253.15,0.4671725485849623,Trans-cinnamyl alcohol,n-propanol
4036.0,CO/C=C(/C(=O)OC)c1ccccc1Oc1cc(Oc2ccccc2C#N)ncn1,CCCO,mol_4036_solute_opt,mol_4036_solvent_opt,50,43,288.15,-2.055844392381453,Azoxystrobin,n-propanol
4037.0,CC1(C)COP(=O)(Oc2cccc(OP3(=O)OCC(C)(C)CO3)c2)OC1,CCCO,mol_4037_solute_opt,mol_4037_solvent_opt,50,28,293.15,-1.8911626811890736,"Resorcinol bis(cyclic 2,2-dimethyl-1,3-propanediol phosphate)",n-propanol
4038.0,Cc1ccccc1S(N)(=O)=O,CCCO,mol_4038_solute_opt,mol_4038_solvent_opt,50,41,283.15,-0.5058965988235379,o-Toluenesulfonamide,n-propanol
4039.0,COc1ccc([C@@H]2CC(=O)c3c(O)cc(O[C@@H]4O[C@H](CO[C@@H]5O[C@@H](C)[C@H](O)[C@@H](O)[C@H]5O)[C@@H](O)[C@H](O)[C@H]4O)cc3O2)cc1O,CCCO,mol_4039_solute_opt,mol_4039_solvent_opt,50,23,293.15,-2.72150101860388,Hesperidin,n-propanol
4040.0,CN1CC(O)c2cc(N=NC(N)=O)c(O)cc21,CCCO,mol_4040_solute_opt,mol_4040_solvent_opt,50,34,278.15,-3.622873133879692,Carbazochrome,n-propanol
4041.0,COc1ccc(C(=O)N2CCCC2=O)cc1,CCCO,mol_4041_solute_opt,mol_4041_solvent_opt,50,36,273.15,-2.2001415281678955,Aniracetam,n-propanol
4042.0,CS(=O)(=O)c1ccc([C@@H](O)[C@@H](CF)NC(=O)C(Cl)Cl)cc1,CCCO,mol_4042_solute_opt,mol_4042_solvent_opt,50,29,283.15,-1.880271072178172,Florfenicol,n-propanol
4043.0,Cc1cc(C)nc(Nc2ccccc2)n1,CCCO,mol_4043_solute_opt,mol_4043_solvent_opt,50,29,283.15,-0.6086451733818461,Pyrimethanil,n-propanol
4044.0,O=C(O)Cc1ccccc1Cl,CCCO,mol_4044_solute_opt,mol_4044_solvent_opt,50,41,273.15,0.4145332848998398,2-chlorophenylacetic acid,n-propanol
4045.0,CC(=O)c1ccc([N+](=O)[O-])cc1,CCCO,mol_4045_solute_opt,mol_4045_solvent_opt,50,43,278.15,-1.182737388594141,1-(4-nitrophenyl)ethanone,n-propanol
4046.0,CC(=O)c1cccc([N+](=O)[O-])c1,CCCO,mol_4046_solute_opt,mol_4046_solvent_opt,50,36,278.15,-1.2768626037534678,1-(3-nitrophenyl)ethanone,n-propanol
4047.0,O=C(c1ccccc1)c1ccccc1,CCCO,mol_4047_solute_opt,mol_4047_solvent_opt,50,42,278.15,0.0571774510586377,Benzophenone,n-propanol
4048.0,Nc1nc(Cl)cc(Cl)n1,CCCO,mol_4048_solute_opt,mol_4048_solvent_opt,50,39,278.15,-1.9679239927880785,"2-amino-4,6-dichoropyrimidine",n-propanol
4049.0,O=c1nc[nH]c2[nH]ncc12,CCCO,mol_4049_solute_opt,mol_4049_solvent_opt,50,42,278.15,-3.181126508478649,Allopurinol,n-propanol
4050.0,COc1ccc2c(c1)c(CC(=O)O)c(C)n2C(=O)c1ccc(Cl)cc1,CCCO,mol_4050_solute_opt,mol_4050_solvent_opt,50,34,298.15,-1.237606461907879,Indomethacin,n-propanol
4051.0,COc1ccc2cc([C@H](C)C(=O)O)ccc2c1,CCCO,mol_4051_solute_opt,mol_4051_solvent_opt,50,29,298.15,-0.7463124236657261,(S)-Naproxen,n-propanol
4052.0,N#Cc1ccc([N+](=O)[O-])cc1,CCCO,mol_4052_solute_opt,mol_4052_solvent_opt,50,41,278.15,-1.5111048775669846,4-nitrobenzonitrile,n-propanol
4053.0,NC(=O)c1cccnc1,CCCO,mol_4053_solute_opt,mol_4053_solvent_opt,50,39,283.15,-0.5202213328568989,Nicotinamide,n-propanol
4054.0,CC(=O)O[C@H]1CC[C@@]2(C)C(=CC[C@@H]3[C@@H]2CC[C@]2(C)C(c4cccnc4)=CC[C@@H]32)C1,CCCO,mol_4054_solute_opt,mol_4054_solvent_opt,50,28,296.0,-0.4798720934511357,Abiraterone acetate,n-propanol
4055.0,C[C@]12CC[C@H](O)CC1=CC[C@@H]1[C@@H]2CC[C@]2(C)C(c3cccnc3)=CC[C@@H]12,CCCO,mol_4055_solute_opt,mol_4055_solvent_opt,50,36,296.0,-1.624770894765084,Abiraterone,n-propanol
4056.0,O=C(O)c1cc2ccccc2cc1O,CCCO,mol_4056_solute_opt,mol_4056_solvent_opt,50,37,293.15,-0.4935923614011756,3-hydroxy-2-naphthoic acid,n-propanol
4057.0,CCOC(=O)C1=C[C@]2(CC)CCCN3CCc4c(n1c1ccccc41)[C@@H]32,CCCO,mol_4057_solute_opt,mol_4057_solvent_opt,50,29,283.15,-2.0077314267239568,Vinpocetine,n-propanol
4058.0,CC[C@@H](C(N)=O)N1CCCC1=O,CCCO,mol_4058_solute_opt,mol_4058_solvent_opt,50,40,283.15,-0.6390476658616283,Levetiracetam,n-propanol
4059.0,NNC(=O)c1ccncc1,CCCO,mol_4059_solute_opt,mol_4059_solvent_opt,50,42,283.15,-1.527747532612241,Isoniazid,n-propanol
4060.0,N#CCc1ccc([N+](=O)[O-])cc1,CCCO,mol_4060_solute_opt,mol_4060_solvent_opt,50,45,278.15,-1.7433826752158257,p-nitrophenylacetonitrile,n-propanol
4061.0,CCCN(CCC)S(=O)(=O)c1ccc(C(=O)O)cc1,CCCO,mol_4061_solute_opt,mol_4061_solvent_opt,50,35,283.15,-1.131454859622481,Probenecid,n-propanol
4062.0,Cc1nc(C)c(C)nc1C,CCCO,mol_4062_solute_opt,mol_4062_solvent_opt,50,30,273.15,0.1918547879725358,Tetramethylpyrazine,n-propanol
4063.0,COc1c(N2CCNC(C)C2)c(F)cc2c(=O)c(C(=O)O)cn(C3CC3)c12,CCCO,mol_4063_solute_opt,mol_4063_solvent_opt,50,27,273.15,-2.303724698519123,Gatifloxacin,n-propanol
4064.0,Nc1cc([N+](=O)[O-])ccc1Cl,CCCO,mol_4064_solute_opt,mol_4064_solvent_opt,50,45,273.15,-0.9584058792999516,2-chloro-5-nitroaniline,n-propanol
4065.0,Nc1nc(Cl)c2[nH]cnc2n1,CCCO,mol_4065_solute_opt,mol_4065_solvent_opt,50,37,278.15,-2.854275917275893,2-amino-6-chloropurine,n-propanol
4066.0,C[C@@H](O)[C@H]1C(=O)N2C(C(=O)[O-])=C(SC3Cn4cnc[n+]4C3)[C@H](C)[C@H]12,CCCO,mol_4066_solute_opt,mol_4066_solvent_opt,50,32,283.15,-3.802266569027575,Biapenem,n-propanol
4067.0,CC#C[C@]1(O)CC[C@H]2[C@@H]3CCC4=CC(=O)CCC4=C3[C@@H](c3ccc(N(C)C)cc3)C[C@@]21C,CCCO,mol_4067_solute_opt,mol_4067_solvent_opt,50,26,273.15,-2.7250451709622445,Mifepristone,n-propanol
4068.0,Nc1nc2c(ncn2COC(CO)CO)c(=O)[nH]1,CCCO,mol_4068_solute_opt,mol_4068_solvent_opt,50,36,278.15,-2.584225968111032,Ganciclovir,n-propanol
4069.0,CC(C)N1C(=O)N(c2ccccc2)CSC1=NC(C)(C)C,CCCO,mol_4069_solute_opt,mol_4069_solvent_opt,50,31,273.15,-1.1110938844750309,Buprofezin,n-propanol
4070.0,CC(=O)N(CC(O)CO)c1c(I)c(C(=O)NCC(O)CO)c(I)c(C(=O)NCC(O)CO)c1I,CCCO,mol_4070_solute_opt,mol_4070_solvent_opt,50,24,283.15,-2.014725819899439,Iohexol,n-propanol
4071.0,COC(=O)Nc1nc2ccc(C(=O)c3ccc(F)cc3)cc2[nH]1,CCCO,mol_4071_solute_opt,mol_4071_solvent_opt,50,37,283.15,-3.98256650401281,Flubendazole,n-propanol
4072.0,NC(=O)c1ccc(N)cc1,CCCO,mol_4072_solute_opt,mol_4072_solvent_opt,50,41,283.15,-1.264344373309687,4-aminobenzamide,n-propanol
4073.0,CCOC(=O)[C@@H](C)Oc1ccc(Oc2cnc3cc(Cl)ccc3n2)cc1,CCCO,mol_4073_solute_opt,mol_4073_solvent_opt,50,28,273.15,-1.585633720110178,Quizalofop-p-ethyl,n-propanol
4074.0,O=C(O)[C@H]1O[C@@H](Oc2cc3oc(-c4ccccc4)cc(=O)c3c(O)c2O)[C@H](O)[C@@H](O)[C@@H]1O,CCCO,mol_4074_solute_opt,mol_4074_solvent_opt,50,24,278.15,-1.981519586184062,Baicalin,n-propanol
4075.0,Nc1cccc2c(N)cccc12,CCCO,mol_4075_solute_opt,mol_4075_solvent_opt,50,38,273.15,-2.058458286034768,"1,5-Naphthalenediamine",n-propanol
4076.0,Nc1cccc2cccc(N)c12,CCCO,mol_4076_solute_opt,mol_4076_solvent_opt,50,41,273.15,-0.262707452939058,"1,8-Naphthalenediamine",n-propanol
4077.0,Cc1cccc(C(=O)O)c1N,CCCO,mol_4077_solute_opt,mol_4077_solvent_opt,50,36,278.15,-0.6809894037534405,2-amino-3-methylbenzoic acid,n-propanol
4078.0,N#Cc1cccc([N+](=O)[O-])c1C#N,CCCO,mol_4078_solute_opt,mol_4078_solvent_opt,50,41,278.15,-2.0004920865954983,3-nitrophthalonitrile,n-propanol
4079.0,O=C(O)Cc1c[nH]c2ccccc12,CCCO,mol_4079_solute_opt,mol_4079_solvent_opt,50,38,278.15,-3.707283753923403,Indole-3-acetic acid,n-propanol
4080.0,CN(C)/C=C/C(=O)c1cccnc1,CCCO,mol_4080_solute_opt,mol_4080_solvent_opt,50,31,278.15,-0.5928341827168085,(2E)-1-(3-pyridyl)-3-(dimethylamino)-2-propen-1-one,n-propanol
4081.0,NC(=O)c1ccc([N+](=O)[O-])cc1,CCCO,mol_4081_solute_opt,mol_4081_solvent_opt,50,37,283.15,-1.8864277838117576,p-Nitrobenzamide,n-propanol
4082.0,Sc1nc2ccccc2[nH]1,CCCO,mol_4082_solute_opt,mol_4082_solvent_opt,50,35,278.15,-1.180205426402108,2-mercaptobenzimidazole,n-propanol
4084.0,O=Cc1cc([N+](=O)[O-])ccc1O,CCCO,mol_4084_solute_opt,mol_4084_solvent_opt,50,42,273.15,-1.6634434882392184,5-nitrosalicylaldehyde,n-propanol
4085.0,N#CCc1ccccc1[N+](=O)[O-],CCCO,mol_4085_solute_opt,mol_4085_solvent_opt,50,35,278.15,-1.2506794171510265,o-nitrophenylacetonitrile,n-propanol
4086.0,N[C@H](Cc1c[nH]c2ccccc12)C(=O)O,CCCO,mol_4086_solute_opt,mol_4086_solvent_opt,50,40,283.15,-3.2148575596467275,D-tryptophan,n-propanol
4087.0,OCc1ccc(O[C@@H]2O[C@H](CO)[C@@H](O)[C@H](O)[C@H]2O)cc1,CCCO,mol_4087_solute_opt,mol_4087_solvent_opt,50,30,273.15,-1.995430977521608,Gastrodin,n-propanol
4088.0,O=C1Cc2ccccc2N1,CCCO,mol_4088_solute_opt,mol_4088_solvent_opt,50,36,293.15,-0.2684156831494958,2-oxindole,n-propanol
4089.0,N[C@H](CC(=O)O)C(=O)O,CCCO,mol_4089_solute_opt,mol_4089_solvent_opt,50,36,288.15,-2.4996130623544146,D-aspartic acid,n-propanol
4090.0,NC(=O)c1ccccc1N,CCCO,mol_4090_solute_opt,mol_4090_solvent_opt,50,37,273.15,-0.5718817999407715,2-aminobenzamide,n-propanol
4091.0,N#CC(c1ccc(Cl)cc1)c1c(Cl)cc(-n2ncc(=O)[nH]c2=O)cc1Cl,CCCO,mol_4091_solute_opt,mol_4091_solvent_opt,50,38,283.15,-1.7980545648138653,Diclazuril,n-propanol
4092.0,NS(=O)(=O)c1ccccc1,CCCO,mol_4092_solute_opt,mol_4092_solvent_opt,50,43,273.15,-0.9552432102795024,Benzenesulfonamide,n-propanol
4093.0,Fc1c(I)c(F)c(I)c(F)c1I,CCCO,mol_4093_solute_opt,mol_4093_solvent_opt,50,41,291.25,-1.538117130712193,"1,3,5-trifluoro-2,4,6-triiodobenzene",n-propanol
4094.0,Nc1nnn[nH]1,CCCO,mol_4094_solute_opt,mol_4094_solvent_opt,50,43,283.15,-2.0276815178594845,5-aminotetrazole,n-propanol
4095.0,CC(C)=CCC[C@@H](C)[C@H]1CC[C@@]2(C)C3=C(CC[C@]12C)[C@@]1(C)CC[C@H](O)C(C)(C)[C@@H]1CC3,CCCO,mol_4095_solute_opt,mol_4095_solvent_opt,50,33,278.07,-1.912489461447312,Lanosterol,n-propanol
4096.0,Cc1cnc(C(=O)O)cn1,CCCO,mol_4096_solute_opt,mol_4096_solvent_opt,50,37,273.15,-3.8649798511711824,5-methyl-2-pyrazinecarboxylic acid,n-propanol
4097.0,Nc1ccc(S(N)(=O)=O)cc1,CCCO,mol_4097_solute_opt,mol_4097_solvent_opt,50,41,278.15,-1.874619702110912,Sulfanilamide,n-propanol
4098.0,O=C(O[C@@H]1Cc2c(O)cc(O)cc2O[C@@H]1c1cc(O)c(O)c(O)c1)c1cc(O)c(O)c(O)c1,CCCO,mol_4098_solute_opt,mol_4098_solvent_opt,50,26,278.15,-3.7807927475168266,(−)-epigallocatechin gallate,n-propanol
4099.0,N=C(N)NC(N)=S,CCCO,mol_4099_solute_opt,mol_4099_solvent_opt,50,38,283.15,-1.4343919463316457,Amidinothiourea,n-propanol
4100.0,CN1CCN(c2c(F)cc3c(=O)c(C(=O)O)cn4c3c2OCN4C)CC1,CCCO,mol_4100_solute_opt,mol_4100_solvent_opt,50,29,283.15,-2.950751958263892,Marbofloxacin,n-propanol
4101.0,Cc1c(C(=O)O)cc([N+](=O)[O-])cc1[N+](=O)[O-],CCCO,mol_4101_solute_opt,mol_4101_solvent_opt,50,34,288.15,-0.7640868672085541,"3,5-dinitro-2-methylbenzoic acid",n-propanol
4102.0,O=C1C=CC(=O)N1c1ccccc1Br,CCCO,mol_4102_solute_opt,mol_4102_solvent_opt,50,42,278.15,-1.0083306251013493,"1-(2-bromo-phenyl)-pyrrole-2,5-dione",n-propanol
4103.0,O=[N+]([O-])c1ncccc1O,CCCO,mol_4103_solute_opt,mol_4103_solvent_opt,50,43,278.15,-0.3786027415688036,3-hydroxy-2-nitropyridine,n-propanol
4104.0,Cc1nc(N)nc(N)n1,CCCO,mol_4104_solute_opt,mol_4104_solvent_opt,50,37,283.15,-2.362698030005701,Acetoguanamine,n-propanol
4105.0,COC(=O)c1ccc(C(=O)OC)cc1,CCCO,mol_4105_solute_opt,mol_4105_solvent_opt,50,37,283.14,-2.0220155553175765,Dimethyl terephthalate,n-propanol
4106.0,N[C@H](Cc1c[nH]cn1)C(=O)O,CCCO,mol_4106_solute_opt,mol_4106_solvent_opt,50,37,293.15,-2.188526188370639,D-histidine,n-propanol
4107.0,O=C(O)c1cccnc1Cl,CCCO,mol_4107_solute_opt,mol_4107_solvent_opt,50,43,273.15,-1.2138058723465084,2-chloronicotinic acid,n-propanol
4108.0,CN(C)[C@@H]1C(=O)C(C(N)=O)=C(O)[C@@]2(O)C(=O)C3=C(O)c4c(O)cccc4C[C@H]3C[C@@H]12,CCCO,mol_4108_solute_opt,mol_4108_solvent_opt,50,27,278.15,-2.861075881925942,Sancycline,n-propanol
4109.0,C[C@]12CCC3=C4CCC(=O)C=C4CC[C@H]3[C@@H]1CC[C@@]2(O)CC#N,CCCO,mol_4109_solute_opt,mol_4109_solvent_opt,50,29,273.15,-1.7308542432720522,Dienogest,n-propanol
4110.0,O=C(Nc1c(Cl)cncc1Cl)c1ccc(OC(F)F)c(OCC2CC2)c1,CCCO,mol_4110_solute_opt,mol_4110_solvent_opt,50,31,278.2,-3.1769623074968094,Roflumilast,n-propanol
4111.0,C[C@H](N)C(=O)O,CCCO,mol_4111_solute_opt,mol_4111_solvent_opt,50,39,283.15,-2.7829296754852995,L-alanine,n-propanol
4112.0,Nc1c(Cl)cc([N+](=O)[O-])cc1Cl,CCCO,mol_4112_solute_opt,mol_4112_solvent_opt,50,41,278.15,-1.8593950214603407,"2,6-dichloro-4-nitroaniline",n-propanol
4113.0,COC(=O)C(C)(C)N=NC(C)(C)C(=O)OC,CCCO,mol_4113_solute_opt,mol_4113_solvent_opt,50,33,253.35,-0.9081603138759456,"2,2′-azobis(2-methylpropionate)",n-propanol
4114.0,NC(N)=NC(N)=NCCc1ccccc1,CCCO,mol_4114_solute_opt,mol_4114_solvent_opt,50,35,278.15,-1.877685033026792,Phenformin,n-propanol
4115.0,CN(C)Cc1c[nH]c2ccccc12,CCCO,mol_4115_solute_opt,mol_4115_solvent_opt,50,37,273.15,-0.3985242282862825,Gramine,n-propanol
4116.0,Nc1ccc(Cl)cc1[N+](=O)[O-],CCCO,mol_4116_solute_opt,mol_4116_solvent_opt,50,44,278.15,-0.7853051462958439,4-chloro-2-nitroaniline,n-propanol
4117.0,COc1cc([N+](=O)[O-])ccc1N,CCCO,mol_4117_solute_opt,mol_4117_solvent_opt,50,38,278.15,-1.5683152660092134,2-methoxy-4-nitroaniline,n-propanol
4118.0,O=Cc1ccc(O)c(Br)c1,CCCO,mol_4118_solute_opt,mol_4118_solvent_opt,50,40,278.15,-0.9264700827643636,3-bromo-4-hydroxybenzaldehyde,n-propanol
4119.0,CC1(C)NC(=O)NC1=O,CCCO,mol_4119_solute_opt,mol_4119_solvent_opt,50,42,283.15,-0.341318034487261,"5,5-dimethylhydantoin",n-propanol
4120.0,ON(Cc1ccccc1)Cc1ccccc1,CCCO,mol_4120_solute_opt,mol_4120_solvent_opt,50,35,273.15,-1.7305345915527903,"N,N-dibenzylhydroxylamine",n-propanol
4121.0,CS(=O)(=O)c1ccc(C(=O)C2C(=O)CCCC2=O)c([N+](=O)[O-])c1,CCCO,mol_4121_solute_opt,mol_4121_solvent_opt,50,35,283.15,-1.7541322910866337,Mesotrione,n-propanol
4122.0,Cc1nc(CCl)nc2ccccc12,CCCO,mol_4122_solute_opt,mol_4122_solvent_opt,50,34,281.15,0.3216806882308198,2-chloromethyl-4-methylquinazoline,n-propanol
4123.0,CC(=O)N[C@@H](CC(C)C)C(=O)O,CCCO,mol_4123_solute_opt,mol_4123_solvent_opt,50,34,283.15,-0.5684897245426869,N-acetyl-L-leucine,n-propanol
4124.0,O=c1[nH]c2ccccc2c(=O)o1,CCCO,mol_4124_solute_opt,mol_4124_solvent_opt,50,40,288.15,-1.8059951905433744,Isatoic anhydride,n-propanol
4125.0,Oc1c(Br)cc(Br)c2cccnc12,CCCO,mol_4125_solute_opt,mol_4125_solvent_opt,50,40,288.15,-2.8128510459735923,"5,7-dibromo-8-hydroxyquinoline",n-propanol
4126.0,CC(=O)NC1(C)CCC2CC1C(C)=NC2(C)C,CCCO,mol_4126_solute_opt,mol_4126_solvent_opt,50,31,298.15,-1.7182004014406078,"8-acetamide-2,4,4,8-tetramethyl-3-azabicyclo[3.3.1]non-2-ene perchlorate",n-propanol
4127.0,c1nc[nH]n1,CCCO,mol_4127_solute_opt,mol_4127_solvent_opt,50,43,283.17,0.2673999492278117,"1H-1,2,4-triazole",n-propanol
4128.0,CC(C)Cc1ccc(C(C)C(=O)O)cc1,CCCO,mol_4128_solute_opt,mol_4128_solvent_opt,50,37,284.17,0.296514750106906,Ibuprofen,n-propanol
4129.0,N[C@@H](Cc1ccc([N+](=O)[O-])cc1[N+](=O)[O-])C(=O)O,CCCO,mol_4129_solute_opt,mol_4129_solvent_opt,50,36,273.15,-4.453195068678343,"2,4-dinitro-L-phenylalanine",n-propanol
4130.0,COC(=O)/C=C/C(=O)OC,CCCO,mol_4130_solute_opt,mol_4130_solvent_opt,50,36,295.2,-1.1702013514050045,Dimethyl fumarate,n-propanol
4131.0,CCOc1nc2cccc(C(=O)OC(C)OC(=O)OC3CCCCC3)c2n1Cc1ccc(-c2ccccc2-c2nn[nH]n2)cc1,CCCO,mol_4131_solute_opt,mol_4131_solvent_opt,50,20,278.15,-2.0744968410336235,Candesartan cilexetil,n-propanol
4132.0,CC(=O)[C@@]12O[C@@H]1CC1C3CCC4=CC(=O)CC[C@]4(C)C3CC[C@@]12C,CCCO,mol_4132_solute_opt,mol_4132_solvent_opt,50,35,299.15,-1.3323140999948826,"16α,17α-Epoxyprogesterone",n-propanol
4133.0,CC(=O)[C@@]12O[C@@H]1CC1C3CCC4=CC(=O)CC[C@]4(C)C3[C@H](O)C[C@@]12C,CCCO,mol_4133_solute_opt,mol_4133_solvent_opt,50,33,300.5,-1.975914427583772,"11α-Hydroxy-16α,17α-epoxyprogesterone",n-propanol
4134.0,CC(C)Cc1ccc([C@H](C)C(=O)O)cc1,CCCO,mol_4134_solute_opt,mol_4134_solvent_opt,50,34,263.15,0.2577598880048657,Dexibuprofen,n-propanol
4135.0,O=C(CCc1ccc(O)cc1)c1c(O)cc(O)cc1O,CCCO,mol_4135_solute_opt,mol_4135_solvent_opt,50,31,288.2,-0.38121064712205,Phloretin,n-propanol
4136.0,C[C@H]1[C@H](C)CC[C@]2(C(=O)O[C@@H]3O[C@H](CO[C@@H]4O[C@H](CO)[C@@H](O[C@@H]5O[C@@H](C)[C@H](O)[C@@H](O)[C@H]5O)[C@H](O)[C@H]4O)[C@@H](O)[C@H](O)[C@H]3O)CC[C@]3(C)C(=CC[C@@H]4[C@@]5(C)C[C@@H](O)[C@H](O)[C@@](C)(CO)[C@@H]5CC[C@]43C)[C@H]12,CCCO,mol_4136_solute_opt,mol_4136_solvent_opt,50,18,298.15,-3.1599530088954504,Asiaticoside,n-propanol
4137.0,N=c1nc(N2CCCCC2)cc(N)n1O,CCCO,mol_4137_solute_opt,mol_4137_solvent_opt,50,31,278.15,-1.2308047518620768,Minoxidil,n-propanol
4138.0,CO/N=C(\C(=O)O)c1csc(N)n1,CCCO,mol_4138_solute_opt,mol_4138_solvent_opt,50,36,282.85,-3.538585140324918,(Z)-2-(2-aminothiazol-4-yl)-2-methoxyiminoacetic acid,n-propanol
4139.0,Clc1cc(Cl)c(OCCBr)c(Cl)c1,CCCO,mol_4139_solute_opt,mol_4139_solvent_opt,50,39,278.1,-0.8716329321532043,"2-(2,4,6-trichlorophenoxy)ethyl bromide",n-propanol
4140.0,C=C(C)[C@@H]1CC[C@]2(C(=O)O)CC[C@]3(C)[C@H](CC[C@@H]4[C@@]5(C)CC[C@H](O)C(C)(C)[C@@H]5CC[C@]43C)[C@@H]12,CCCO,mol_4140_solute_opt,mol_4140_solvent_opt,50,21,278.2,-1.8534730146041445,Betulinic acid,n-propanol
4141.0,C[N+](C)(C)CC(=O)[O-],CCCO,mol_4141_solute_opt,mol_4141_solvent_opt,50,37,282.85,-0.7349353402923612,Betaine,n-propanol
4142.0,C=C1CC[C@H](O)C/C1=C/C=C1\CCC[C@]2(C)[C@@H]([C@H](C)CCCC(C)C)CC[C@@H]12,CCCO,mol_4142_solute_opt,mol_4142_solvent_opt,50,28,248.2,-0.0145591975355698,Vitamin D3,n-propanol
4143.0,Nc1cccnn1,CCCO,mol_4143_solute_opt,mol_4143_solvent_opt,50,40,288.45,-0.6577953327002898,Pyridazin-3-amine,n-propanol
4144.0,O=P(CCCO)(CCCO)CCCO,CCCO,mol_4144_solute_opt,mol_4144_solvent_opt,50,31,298.16,-0.2926125270884072,Tris(3-hydroxypropyl)phosphine oxide,n-propanol
4145.0,COc1ccc(C(=O)O)cc1OC,CCCO,mol_4145_solute_opt,mol_4145_solvent_opt,50,36,278.37,-1.4347158238609443,Veratric acid,n-propanol
4146.0,O=C(O)[C@@H]1Cc2ccccc2N1,CCCO,mol_4146_solute_opt,mol_4146_solvent_opt,50,31,283.15,-1.9557027586445488,(S)-indoline-2-carboxylic acid,n-propanol
4147.0,CC1=C(C(=O)O)N2C(=O)[C@@H](NC(=O)[C@H](N)C3=CCC=CC3)[C@H]2SC1,CCCO,mol_4147_solute_opt,mol_4147_solvent_opt,50,29,283.15,-2.590506368574723,Cefradine,n-propanol
4148.0,CCNc1nc(Cl)nc(NC(C)C)n1,CCCO,mol_4148_solute_opt,mol_4148_solvent_opt,50,38,283.15,-1.5488084718605442,Atrazine,n-propanol
4149.0,O=C(O)c1cc2ccccc2[nH]1,CCCO,mol_4149_solute_opt,mol_4149_solvent_opt,50,39,278.25,-0.2068986725075411,Indole-2-carboxylic acid,n-propanol
4150.0,O=P12OCC(CO)(CO1)CO2,CCCO,mol_4150_solute_opt,mol_4150_solvent_opt,50,44,293.85,-1.5721553703365454,"4-(hydroxymethyl)-1-oxido-2,6,7-trioxa-1-phosphabicyclo[2.2.2]octane",n-propanol
4151.0,OC(Cn1cncn1)(Cn1cncn1)c1ccc(F)cc1F,CCCO,mol_4151_solute_opt,mol_4151_solvent_opt,50,36,298.15,-0.8102577697265743,Fluconazole,n-propanol
4152.0,O=[N+]([O-])c1ccc(Cl)c(Cl)c1,CCCO,mol_4152_solute_opt,mol_4152_solvent_opt,50,40,278.15,-0.1407278733794457,"3,4-dichloronitrobenzene",n-propanol
4153.0,O=[N+]([O-])c1cccc(Cl)c1Cl,CCCO,mol_4153_solute_opt,mol_4153_solvent_opt,50,41,278.15,-0.5118559193132824,"2,3-dichloronitrobenzene",n-propanol
4154.0,O=C(O)c1ccco1,CCCO,mol_4154_solute_opt,mol_4154_solvent_opt,50,40,282.95,0.3365755024983101,2-furancarboxylic acid,n-propanol
4155.0,CCCCCCCCCCCC(=O)O,CCCO,mol_4155_solute_opt,mol_4155_solvent_opt,50,34,276.17,-0.1097931733853943,Lauric acid,n-propanol
4156.0,NC(CO)(CO)CO,CCCO,mol_4156_solute_opt,mol_4156_solvent_opt,50,41,293.2,-1.292330039015465,Tris(hydroxymethyl)aminomethane,n-propanol
4157.0,COc1ccc(C(=O)O)c(OC)c1,CCCO,mol_4157_solute_opt,mol_4157_solvent_opt,50,33,288.15,-0.9283921157744548,"2,4-dimethoxybenzoic acid",n-propanol