pair_id,SMILES_Solute,SMILES_Solvent,Solute_name,Solvent_name,Total_conformers,Filtered_conformers,Temperature_K,LogS,Compound_Name,Solvent
4158.0,C=C(C)[C@@H]1CC[C@]2(CO)CC[C@]3(C)[C@H](CC[C@@H]4[C@@]5(C)CC[C@H](O)C(C)(C)[C@@H]5CC[C@]43C)[C@@H]12,CCCO,mol_4158_solute_opt,mol_4158_solvent_opt,50,28,278.2,-1.8124574240046776,Betulin,n-propanol
4159.0,O=C(O)Cn1cnnn1,CCCO,mol_4159_solute_opt,mol_4159_solvent_opt,50,41,288.27,-0.3638142254903406,1H-Tetrazole-1-acetic Acid,n-propanol
4160.0,CCc1ccc(C(=O)c2ccccc2C(=O)O)cc1,CCCO,mol_4160_solute_opt,mol_4160_solvent_opt,50,39,279.55,-0.1474372348675571,2-(4-ethylbenzoyl)benzoic acid,n-propanol
4161.0,COc1cc(Cc2cnc(N)nc2N)cc(OC)c1OC,CCCO,mol_4161_solute_opt,mol_4161_solvent_opt,50,33,277.35,-2.4232693168217465,Trimethoprim,n-propanol
4162.0,CN(C)CCn1[nH]nnc1=S,CCCO,mol_4162_solute_opt,mol_4162_solvent_opt,50,29,293.17,-3.110675214759165,1-(2-dimethylaminoethyl)-5-mercapto-1H-tetrazole,n-propanol
4163.0,O=C(O)CCCCCCCCC(=O)O,CCCO,mol_4163_solute_opt,mol_4163_solvent_opt,50,32,292.0,-0.9150675562293,Sebacic acid,n-propanol
4164.0,O=C(Oc1ccccc1)Oc1ccccc1,CCCO,mol_4164_solute_opt,mol_4164_solvent_opt,50,32,283.0,-0.8614163612392707,Diphenyl carbonate,n-propanol
4165.0,O=C(Oc1ccccc1)c1ccccc1O,CCCO,mol_4165_solute_opt,mol_4165_solvent_opt,50,34,283.15,-0.4236185426284955,Salol,n-propanol
4166.0,c1cc2c3c(cccc3c1)CC2,CCCO,mol_4166_solute_opt,mol_4166_solvent_opt,50,35,283.0,-0.9214535944470218,Acenaphthene,n-propanol
4167.0,O=C(O)c1ccncc1,CCCO,mol_4167_solute_opt,mol_4167_solvent_opt,50,44,289.65,-2.146546628218234,Isonicotinic acid,n-propanol
4168.0,O=C(O)CCC(=O)O,CCCO,mol_4168_solute_opt,mol_4168_solvent_opt,50,40,283.55,-0.6715487688968731,Succinic acid,n-propanol
4169.0,O=C(O)/C=C/C(=O)O,CCCO,mol_4169_solute_opt,mol_4169_solvent_opt,50,37,279.0,-0.935950935566252,Fumaric acid,n-propanol
4170.0,Cn1[nH]c(=O)c(=O)[nH]c1=S,CCCO,mol_4170_solute_opt,mol_4170_solvent_opt,50,32,292.99,-0.936036316692459,Thiotriazinone,n-propanol
4171.0,CO/N=C(\C(=O)Sc1nc2ccccc2s1)c1csc(N)n1,CCCO,mol_4171_solute_opt,mol_4171_solvent_opt,50,35,277.85,-2.5130127992891262,"(α,Z)-2-Amino-α-(methoxyimino)-4-thiazole-ethanethioic Acid S-2-Benzothiazolyl Ester",n-propanol
4172.0,O=[N+]([O-])N1CN([N+](=O)[O-])CN([N+](=O)[O-])CN([N+](=O)[O-])C1,CC(C)=O,mol_4172_solute_opt,mol_4172_solvent_opt,50,43,293.15,-1.212347917597398,Cyclotetramethylenetetranitramine (HMX),acetone
4173.0,CC(=O)C1=C(O)C=C2Oc3c(C(C)=O)c(O)c(C)c(O)c3[C@]2(C)C1=O,CC(C)=O,mol_4173_solute_opt,mol_4173_solvent_opt,50,32,278.15,-2.231436721810724,(+)-usnic acid,acetone
4174.0,COc1ccc2nc(SCc3ncc(C)c(OC)c3C)[nH]c2c1,CC(C)=O,mol_4174_solute_opt,mol_4174_solvent_opt,50,25,280.35,-1.156961931405651,Omeprazole sulfide,acetone
4175.0,O=C(O)[C@H](O)[C@@H](O)C(=O)O,CC(C)=O,mol_4175_solute_opt,mol_4175_solvent_opt,50,40,281.15,-0.6948626947311306,L-tartaric acid,acetone
4176.0,CC1(C)COP(=O)(Oc2cc(OP3(=O)OCC(C)(C)CO3)cc(OP3(=O)OCC(C)(C)CO3)c2)OC1,CC(C)=O,mol_4176_solute_opt,mol_4176_solvent_opt,50,23,288.15,-2.207000560509797,"Phloroglucinol tris(cyclic 2,2-dimethyl-1,3-propanediol phosphate)",acetone
4177.0,CCCc1nc2c(C)cc(-c3nc4ccccc4n3C)cc2n1Cc1ccc(-c2ccccc2C(=O)O)cc1,CC(C)=O,mol_4177_solute_opt,mol_4177_solvent_opt,50,26,278.55,-3.2115519003945945,Telmisartan,acetone
4178.0,CC(=O)CCc1ccc(O)cc1,CC(C)=O,mol_4178_solute_opt,mol_4178_solvent_opt,50,37,283.15,0.5410698742758172,4-(4-hydroxyphenyl)-2-butanone (raspberry ketone),acetone
4179.0,CC(=O)c1cnccn1,CC(C)=O,mol_4179_solute_opt,mol_4179_solvent_opt,50,39,268.35,-0.1195253626690316,Acetylpyrazine,acetone
4180.0,Cc1cccc(C(=O)O)c1[N+](=O)[O-],CC(C)=O,mol_4180_solute_opt,mol_4180_solvent_opt,50,43,283.15,-0.4452481284435112,3-methyl-2-nitrobenzoic acid,acetone
4181.0,CC1(C)CC(NCCCCCCNC2CC(C)(C)NC(C)(C)C2)CC(C)(C)N1,CC(C)=O,mol_4181_solute_opt,mol_4181_solvent_opt,50,25,273.15,-0.9159241187964138,"N,N′-Bis(2,2,6,6-tetramethyl-4-piperidinyl)-1,6-hexanediamine (HMBTAD)",acetone
4182.0,CCCCCCCCC(=O)NCc1ccc(O)c(OC)c1,CC(C)=O,mol_4182_solute_opt,mol_4182_solvent_opt,50,24,293.2,0.4178711760911445,Nonivamide,acetone
4183.0,O=[N+]([O-])c1c[nH]cn1,CC(C)=O,mol_4183_solute_opt,mol_4183_solvent_opt,50,44,278.15,-1.7560143825275143,4-nitroimidazole,acetone
4184.0,COc1cc(NS(=O)(=O)c2ccc(N)cc2)ncn1,CC(C)=O,mol_4184_solute_opt,mol_4184_solvent_opt,50,37,299.05,-0.9694085822170408,Sulfamonomethoxine,acetone
4185.0,O=[N+]([O-])c1cc([N+](=O)[O-])c(Cl)c(Cl)c1Cl,CC(C)=O,mol_4185_solute_opt,mol_4185_solvent_opt,50,38,278.15,0.2306163101786558,"2,3,4-trichloro-1,5-dinitrobenzene",acetone
4186.0,CC(=O)OCC(=O)[C@@]12N=C(C)O[C@@H]1C[C@H]1[C@@H]3CCC4=CC(=O)C=C[C@]4(C)[C@H]3[C@@H](O)C[C@@]12C,CC(C)=O,mol_4186_solute_opt,mol_4186_solvent_opt,50,26,293.15,-1.072593097708152,Deflazacort,acetone
4187.0,C=C(CC(=O)O)C(=O)O,CC(C)=O,mol_4187_solute_opt,mol_4187_solvent_opt,50,42,283.15,-0.2255824508772054,Itaconic acid,acetone
4188.0,c1cc2ccc3cccc4ccc(c1)c2c34,CC(C)=O,mol_4188_solute_opt,mol_4188_solvent_opt,50,32,295.35,-0.372712500604036,Pyrene,acetone
4189.0,Cc1c(OCC(F)(F)F)ccnc1CS(=O)c1nc2ccccc2[nH]1,CC(C)=O,mol_4189_solute_opt,mol_4189_solvent_opt,50,28,283.15,-1.462838789201938,Lansoprazole,acetone
4190.0,O=C(O)CCCCCCC(=O)O,CC(C)=O,mol_4190_solute_opt,mol_4190_solvent_opt,50,35,283.15,-1.0790849091759906,Suberic acid,acetone
4191.0,CCOc1nc2cccc(C(=O)OC(C)OC(=O)OC3CCCCC3)c2n1Cc1ccc(-c2ccccc2-c2nn[nH]n2)cc1,CC(C)=O,mol_4191_solute_opt,mol_4191_solvent_opt,50,21,293.15,-1.0355917484792885,Candesartan cilexetil,acetone
4192.0,O=C(O)CC(S)C(=O)O,CC(C)=O,mol_4192_solute_opt,mol_4192_solvent_opt,50,40,278.15,0.328146322112594,Thiomalic acid,acetone
4193.0,COC(=O)C1CC(=O)C(C(=O)OC)CC1=O,CC(C)=O,mol_4193_solute_opt,mol_4193_solvent_opt,50,36,278.15,-1.620656407162693,Dimethyl succinylsuccinate,acetone
4194.0,CC1(C)CO[P+]([O-])(Oc2c(Br)cc(Br)cc2Br)OC1,CC(C)=O,mol_4194_solute_opt,mol_4194_solvent_opt,50,29,293.15,-0.7446921199433493,"1,3,2-dioxaphosphorinane-5,5-dimethyl-2-(2,4,6-tribromophenoxy)-2-oxide",acetone
4195.0,O=C(O)C[C@H](O)C(=O)O,CC(C)=O,mol_4195_solute_opt,mol_4195_solvent_opt,50,39,278.15,0.341200452511836,L-malic acid,acetone
4196.0,CCN1CCN(C(=O)N[C@@H](C(=O)N[C@@H]2C(=O)N3C(C(=O)O)=C(CSc4nnnn4C)CS[C@H]23)c2ccc(O)cc2)C(=O)C1=O,CC(C)=O,mol_4196_solute_opt,mol_4196_solvent_opt,50,25,278.15,-1.0534619542171748,Cefoperazone,acetone
4197.0,O=C1C=CC(=O)O1,CC(C)=O,mol_4197_solute_opt,mol_4197_solvent_opt,50,46,278.15,-0.8530065768874536,Maleic anhydride,acetone
4198.0,Cc1nc2n(c(=O)c1CCN1CCC(c3noc4cc(F)ccc34)CC1)CCCC2,CC(C)=O,mol_4198_solute_opt,mol_4198_solvent_opt,50,26,278.15,-1.9271442507233405,Risperidone,acetone
4199.0,O=C(O)CN(CC(=O)O)CP(=O)(O)O,CC(C)=O,mol_4199_solute_opt,mol_4199_solvent_opt,50,37,293.15,-2.620015660729039,N-(phosphonomethyl)iminodiacetic acid,acetone
4200.0,Cc1nnc(SCC2=C(C(=O)O)N3C(=O)[C@@H](NC(=O)Cn4cnnn4)[C@H]3SC2)s1,CC(C)=O,mol_4200_solute_opt,mol_4200_solvent_opt,50,29,278.15,-2.9566674302126987,Cefazolin acid,acetone
4201.0,CP(=O)(O)O,CC(C)=O,mol_4201_solute_opt,mol_4201_solvent_opt,50,43,288.11,0.2022402668171815,Methylphosphonic acid,acetone
4202.0,Cc1cc(C)c(C(=O)P(=O)(c2ccccc2)c2ccccc2)c(C)c1,CC(C)=O,mol_4202_solute_opt,mol_4202_solvent_opt,50,27,273.15,0.0130478722877242,"(2,4,6-trimethylbenzoyl) diphenylphosphine oxide",acetone
4203.0,CC1(C)CCC2=C(O1)c1ccccc1C(=O)C2=O,CC(C)=O,mol_4203_solute_opt,mol_4203_solvent_opt,50,31,298.15,-0.5484960578645328,β-lapachone,acetone
4204.0,Cn1cc([N+](=O)[O-])cn1,CC(C)=O,mol_4204_solute_opt,mol_4204_solvent_opt,50,40,283.15,-0.5676679929904735,1-methyl-4-nitropyrazole,acetone
4205.0,Nc1nc(N)nc(NC2CC2)n1,CC(C)=O,mol_4205_solute_opt,mol_4205_solvent_opt,50,36,283.15,-2.17273425681829,Cyromazine,acetone
4206.0,NC(=O)c1cnccn1,CC(C)=O,mol_4206_solute_opt,mol_4206_solvent_opt,50,41,283.15,-1.4721132591745203,Pyrazinamide,acetone
4207.0,O=C1NC(=O)C2C3C=CC(C3)C12,CC(C)=O,mol_4207_solute_opt,mol_4207_solvent_opt,50,40,278.15,-0.7429949183629787,"5-norbornene-2,3-dicarboximide",acetone
4208.0,Oc1ccc(/C=C/c2cc(O)cc(O)c2)cc1,CC(C)=O,mol_4208_solute_opt,mol_4208_solvent_opt,50,34,278.2,0.1106623372264162,Trans-resveratrol,acetone
4209.0,C[C@@H]1O[C@@H](OC[C@H]2O[C@@H](Oc3cc(O)c4c(=O)cc(-c5ccccc5O)oc4c3)[C@H](O)[C@@H](O)[C@@H]2O)[C@H](O)[C@H](O)[C@H]1O,CC(C)=O,mol_4209_solute_opt,mol_4209_solvent_opt,50,25,288.2,-3.9545188653650456,Apigenin 7-O-rhamnosylglucoside,acetone
4210.0,O=c1cc(-c2ccc(O)cc2)oc2cc(O)cc(O)c12,CC(C)=O,mol_4210_solute_opt,mol_4210_solvent_opt,50,38,288.2,-2.3339438854173467,Apigenin,acetone
4211.0,C[C@@H]1CC[C@@]2(OC1)O[C@H]1C[C@H]3[C@@H]4CC=C5C[C@@H](O)CC[C@]5(C)[C@H]4CC[C@]3(C)[C@H]1[C@@H]2C,CC(C)=O,mol_4211_solute_opt,mol_4211_solvent_opt,50,25,295.15,-1.911022103341088,Diosgenin,acetone
4212.0,O=C(O)c1cccnc1,CC(C)=O,mol_4212_solute_opt,mol_4212_solvent_opt,50,42,285.46,-1.995868877388013,Nicotinic acid,acetone
4213.0,CN1c2ccccc2C(=O)N2CCc3c([nH]c4ccccc34)[C@H]21,CC(C)=O,mol_4213_solute_opt,mol_4213_solvent_opt,50,32,283.2,-2.5253333576409305,Evodiamine,acetone
4214.0,O=C(O)CCCCCCCCCCC(=O)O,CC(C)=O,mol_4214_solute_opt,mol_4214_solvent_opt,50,28,288.15,-1.384485619898345,Dodecanedioic acid,acetone
4215.0,O=C(O)C(=O)O,CC(C)=O,mol_4215_solute_opt,mol_4215_solvent_opt,50,48,288.15,-0.8088021513809106,Oxalic acid,acetone
4216.0,O=C(O)CC(=O)O,CC(C)=O,mol_4216_solute_opt,mol_4216_solvent_opt,50,39,288.15,0.0312735757873,Malonic acid,acetone
4217.0,O=C(O)CCC(=O)O,CC(C)=O,mol_4217_solute_opt,mol_4217_solvent_opt,50,42,288.15,-0.8033456252262365,Succinic acid,acetone
4218.0,O=C(O)CCCC(=O)O,CC(C)=O,mol_4218_solute_opt,mol_4218_solvent_opt,50,39,288.15,0.4864453321273857,Glutaric acid,acetone
4219.0,O=C(O)CCCCC(=O)O,CC(C)=O,mol_4219_solute_opt,mol_4219_solvent_opt,50,36,288.15,-0.645214851429303,Adipic acid,acetone
4220.0,O=C(O)CCCCCC(=O)O,CC(C)=O,mol_4220_solute_opt,mol_4220_solvent_opt,50,36,288.15,-0.1015871415645053,Pimelic acid,acetone
4221.0,O=C(O)CCCCCCCC(=O)O,CC(C)=O,mol_4221_solute_opt,mol_4221_solvent_opt,50,33,288.15,-0.3874245927170758,Azelaic acid,acetone
4222.0,O=C(O)CCCCCCCCC(=O)O,CC(C)=O,mol_4222_solute_opt,mol_4222_solvent_opt,50,36,288.15,-1.6867488420425587,Sebacic acid,acetone
4223.0,C/C=C/C=C/C(=O)O,CC(C)=O,mol_4223_solute_opt,mol_4223_solvent_opt,50,45,285.15,-0.162501645079825,Sorbic acid,acetone
4224.0,O=c1c(-c2ccc(O)cc2)coc2cc(O[C@@H]3O[C@H](CO)[C@@H](O)[C@H](O)[C@H]3O)ccc12,CC(C)=O,mol_4224_solute_opt,mol_4224_solvent_opt,50,28,283.2,-2.6904362811881097,Daidzin,acetone
4225.0,O=c1c(-c2ccc(O)cc2)coc2cc(O[C@@H]3O[C@H](CO)[C@@H](O)[C@H](O)[C@H]3O)cc(O)c12,CC(C)=O,mol_4225_solute_opt,mol_4225_solvent_opt,50,28,283.2,-2.3107238970418043,Genistin,acetone
4226.0,O=C(O)CCCCCCCCCCCC(=O)O,CC(C)=O,mol_4226_solute_opt,mol_4226_solvent_opt,50,31,283.15,-1.575713899535821,Tridecanedioic acid,acetone
4227.0,O=[N+]([O-])c1cccc2cccc([N+](=O)[O-])c12,CC(C)=O,mol_4227_solute_opt,mol_4227_solvent_opt,50,36,273.15,-0.8342052666668631,"1,8-dinitronaphthalene",acetone
4228.0,O=C1NC(=O)c2ccccc21,CC(C)=O,mol_4228_solute_opt,mol_4228_solvent_opt,50,39,283.15,-0.9628418457493582,Phthalimide,acetone
4229.0,COc1ccc2nc(S(=O)Cc3ncc(C)c(OC)c3C)[nH]c2c1,CC(C)=O,mol_4229_solute_opt,mol_4229_solvent_opt,50,28,278.15,-1.691052319543726,Omeprazole,acetone
4230.0,CCOC(=O)Cc1c(C(=O)OCC)sc(N)c1C#N,CC(C)=O,mol_4230_solute_opt,mol_4230_solvent_opt,50,34,273.15,-0.1843105670023445,Ethyl 5-amino-4-cyano-3-(2-ethoxy-2-oxoethyl)-2-thiophenecarboxylate,acetone
4231.0,CNC(=O)NC,CC(C)=O,mol_4231_solute_opt,mol_4231_solvent_opt,50,39,288.15,0.3064991165639601,"1,3-dimethylurea",acetone
4232.0,O=C1c2cccc(Cl)c2C(=O)N1c1ccccc1,CC(C)=O,mol_4232_solute_opt,mol_4232_solvent_opt,50,31,288.15,-1.3872531749309445,3-chloro-N-phenylphthalimide,acetone
4233.0,CC(=O)O[C@H]1CC[C@@]2(C)C(=CC[C@@H]3[C@@H]2CC[C@]2(C)C(=O)CC[C@@H]32)C1,CC(C)=O,mol_4233_solute_opt,mol_4233_solvent_opt,50,30,273.15,-0.682018997200976,Dehydroepiandrosterone acetate,acetone
4234.0,N=C(Nc1ccccc1)Nc1ccccc1,CC(C)=O,mol_4234_solute_opt,mol_4234_solvent_opt,50,28,273.15,-0.1980567150936253,"1,3-diphenylguanidine",acetone
4235.0,CC1(C)O[C@H]2CC(=O)OC[C@]23[C@H]2CC[C@@]4(C)[C@H](c5ccoc5)OC(=O)[C@H]5O[C@]54[C@]2(C)C(=O)C[C@@H]13,CC(C)=O,mol_4235_solute_opt,mol_4235_solvent_opt,50,27,283.2,-1.2463777116985542,Limonin,acetone
4236.0,O=[N+]([O-])c1ccc(O)c2ncccc12,CC(C)=O,mol_4236_solute_opt,mol_4236_solvent_opt,50,38,278.15,-1.2557559112247094,5-nitro-8-hydroxyquinoline,acetone
4237.0,Cc1cccc([N+](=O)[O-])c1N,CC(C)=O,mol_4237_solute_opt,mol_4237_solvent_opt,50,34,278.15,0.2473550827811268,2-methyl-6-nitroaniline,acetone
4238.0,N#Cc1ccccc1-c1ccc(CBr)cc1,CC(C)=O,mol_4238_solute_opt,mol_4238_solvent_opt,50,37,278.15,-0.6722245972441042,4′-bromomethyl-2-cyanobiphenyl,acetone
4239.0,O=S(=O)(c1ccc(O)cc1)c1ccccc1O,CC(C)=O,mol_4239_solute_opt,mol_4239_solvent_opt,50,31,278.15,0.2170358627437596,"2,4′-dihydroxydiphenyl sulfone",acetone
4240.0,Nc1ccc([N+](=O)[O-])cc1[N+](=O)[O-],CC(C)=O,mol_4240_solute_opt,mol_4240_solvent_opt,50,44,278.15,-0.3958477459454968,"2,4-dinitroaniline",acetone
4241.0,O=Cc1ccc(C=O)cc1,CC(C)=O,mol_4241_solute_opt,mol_4241_solvent_opt,50,44,273.15,-0.3039994452168433,Terephthaldialdehyde,acetone
4242.0,Cc1cc(C(=O)O)ccc1[N+](=O)[O-],CC(C)=O,mol_4242_solute_opt,mol_4242_solvent_opt,50,43,283.15,-0.5406168846212152,3-methyl-4-nitrobenzoic acid,acetone
4243.0,O=C(O)c1ccccc1Nc1ccccc1,CC(C)=O,mol_4243_solute_opt,mol_4243_solvent_opt,50,31,283.15,-0.5729982448416271,N-phenylanthranilic acid,acetone
4244.0,Cc1ccc(S(C)(=O)=O)cc1,CC(C)=O,mol_4244_solute_opt,mol_4244_solvent_opt,50,31,278.15,0.1883422427997622,1-methyl-4-(methylsulfonyl)benzene,acetone
4245.0,C=CC(=O)N1CCC[C@@H](n2nc(-c3ccc(Oc4ccccc4)cc3)c3c(N)ncnc32)C1,CC(C)=O,mol_4245_solute_opt,mol_4245_solvent_opt,50,22,278.15,-1.2962878435767318,Ibrutinib,acetone
4246.0,CCCCc1nc(Cl)c(C(=O)OCOC(=O)OC(C)C)n1Cc1ccc(-c2ccccc2-c2nn[nH]n2)cc1,CC(C)=O,mol_4246_solute_opt,mol_4246_solvent_opt,50,25,278.15,-0.8583075504773648,Allisartan isoproxil,acetone
4247.0,NC(=O)N1c2ccccc2CC(=O)c2ccccc21,CC(C)=O,mol_4247_solute_opt,mol_4247_solvent_opt,50,35,288.15,-1.8412661684578664,Oxcarbazepine,acetone
4248.0,O=Cc1ccc([N+](=O)[O-])cc1,CC(C)=O,mol_4248_solute_opt,mol_4248_solvent_opt,50,46,273.15,-0.2463668151630936,4-nitrobenzaldehyde,acetone
4249.0,C[C@@H]1O[C@@H](OC[C@H]2O[C@@H](Oc3c(-c4ccc(OCCO)c(OCCO)c4)oc4cc(OCCO)cc(O)c4c3=O)[C@H](O)[C@@H](O)[C@@H]2O)[C@H](O)[C@H](O)[C@H]1O,CC(C)=O,mol_4249_solute_opt,mol_4249_solvent_opt,50,17,288.15,-3.3715365591344573,Troxerutin,acetone
4250.0,Nc1nnc[nH]1,CC(C)=O,mol_4250_solute_opt,mol_4250_solvent_opt,50,43,283.15,-1.1800789798779312,"3-amino-1,2,4-triazole",acetone
4251.0,O=C(NC[C@H]1CN(c2ccc(N3CCOCC3=O)cc2)C(=O)O1)c1ccc(Cl)s1,CC(C)=O,mol_4251_solute_opt,mol_4251_solvent_opt,50,30,273.15,-3.245120321171376,Rivaroxaban,acetone
4252.0,CC(C)(C)[C@H](O)[C@H](Cc1ccc(Cl)cc1)n1cncn1,CC(C)=O,mol_4252_solute_opt,mol_4252_solvent_opt,50,38,278.15,-0.7203698218920519,Paclobutrazol,acetone
4253.0,Cn1cnc([N+](=O)[O-])c1Cl,CC(C)=O,mol_4253_solute_opt,mol_4253_solvent_opt,50,37,283.15,-0.5937499957568223,5-chloro-1-methyl-4-nitroimidazole,acetone
4254.0,COc1cc(Cl)nc(N)n1,CC(C)=O,mol_4254_solute_opt,mol_4254_solvent_opt,50,36,273.15,-0.9693644397127248,2-amino-4-chloro-6-methoxypyrimidine,acetone
4255.0,CC[C@H](C)[C@H]1O[C@]2(C=C[C@@H]1C)C[C@@H]1C[C@@H](C/C=C(\C)[C@@H](O[C@H]3C[C@H](OC)[C@@H](O[C@H]4C[C@H](OC)[C@@H](O)[C@H](C)O4)[C@H](C)O3)[C@@H](C)/C=C/C=C3\CO[C@@H]4[C@H](O)C(C)=C[C@@H](C(=O)O1)[C@]34O)O2,CC(C)=O,mol_4255_solute_opt,mol_4255_solvent_opt,50,16,283.15,-0.8938621417461164,Avermectin B1a,acetone
4256.0,Cc1cc([N+](=O)[O-])ccc1N,CC(C)=O,mol_4256_solute_opt,mol_4256_solvent_opt,50,41,278.15,0.060861558420784,2-methyl-4-nitroaniline,acetone
4257.0,O=Cc1cccc([N+](=O)[O-])c1,CC(C)=O,mol_4257_solute_opt,mol_4257_solvent_opt,50,40,273.15,0.4380225951646694,3-nitrobenzaldehyde,acetone
4258.0,CC(=O)[C@@]1(O)CC[C@H]2[C@@H]3CCC4=CC(=O)CC[C@]4(C)[C@H]3[C@@H](O)C[C@@]21C,CC(C)=O,mol_4258_solute_opt,mol_4258_solvent_opt,50,25,278.15,-1.0224259015808896,"11α,17α-dihydroxy-4-pregnene-3,20-dione",acetone
4259.0,Nc1ccc([N+](=O)[O-])cc1N,CC(C)=O,mol_4259_solute_opt,mol_4259_solvent_opt,50,37,283.15,-0.4377429562498392,"4-nitro-1,2-phenylenediamine",acetone
4260.0,Nc1cc(Cl)ccc1C(=O)O,CC(C)=O,mol_4260_solute_opt,mol_4260_solvent_opt,50,37,278.15,-0.6482971227496779,2-amino-4-chlorobenzoic acid,acetone
4261.0,Clc1ccc2c(c1)Nc1ccccc1S2,CC(C)=O,mol_4261_solute_opt,mol_4261_solvent_opt,50,36,283.15,-0.4204168916505759,2-chlorophenothiazine,acetone
4262.0,CC(C)(C)C(O)(CCc1ccc(Cl)cc1)Cn1cncn1,CC(C)=O,mol_4262_solute_opt,mol_4262_solvent_opt,50,30,278.15,-0.3607988695540192,Tebuconazole,acetone
4263.0,CC(C)c1ncc[nH]1,CC(C)=O,mol_4263_solute_opt,mol_4263_solvent_opt,50,33,278.15,0.141335331626599,2-isopropylimidazole,acetone
4264.0,Cc1cc(C)[nH]n1,CC(C)=O,mol_4264_solute_opt,mol_4264_solvent_opt,50,37,283.15,-0.0360151593444365,"3,5-dimethylpyrazole",acetone
4265.0,Cc1c(C(=O)O)cccc1[N+](=O)[O-],CC(C)=O,mol_4265_solute_opt,mol_4265_solvent_opt,50,39,283.15,-0.0542107419604976,2-methyl-3-nitrobenzoic acid,acetone
4266.0,c1ccc(-c2nnn[nH]2)cc1,CC(C)=O,mol_4266_solute_opt,mol_4266_solvent_opt,50,36,283.15,-0.6240382772668867,5-phenyltetrazole,acetone
4267.0,c1ccc2c(c1)sc1ccccc12,CC(C)=O,mol_4267_solute_opt,mol_4267_solvent_opt,50,33,300.15,0.0501054471144888,Dibenzothiophene,acetone
4268.0,O=C1NS(=O)(=O)c2ccccc21,CC(C)=O,mol_4268_solute_opt,mol_4268_solvent_opt,50,44,278.15,-0.5008295422022712,Saccharin,acetone
4269.0,O=C1CCc2ccc(OCCCCN3CCN(c4cccc(Cl)c4Cl)CC3)cc2N1,CC(C)=O,mol_4269_solute_opt,mol_4269_solvent_opt,50,26,278.15,-3.5628988426302635,Aripiprazole,acetone
4270.0,COC(=O)Nc1nc2ccc(Sc3ccccc3)cc2[nH]1,CC(C)=O,mol_4270_solute_opt,mol_4270_solvent_opt,50,36,273.15,-2.6660763801254133,Fenbendazole,acetone
4271.0,O=C1OC(=O)[C@H]2[C@@H]1[C@@H]1C=C[C@H]2C1,CC(C)=O,mol_4271_solute_opt,mol_4271_solvent_opt,50,40,278.15,-0.2432908578135695,"cis-5-norbornene-exo-2,3-dicarboxylic anhydride",acetone
4272.0,COc1ccccc1N1CCN(CC(O)COc2cccc3ccccc23)CC1,CC(C)=O,mol_4272_solute_opt,mol_4272_solvent_opt,50,25,273.15,-1.3497166256763482,Naftopidil,acetone
4273.0,Cc1ccc(NC(=O)c2ccc(CN3CCN(C)CC3)cc2)cc1Nc1nccc(-c2cccnc2)n1,CC(C)=O,mol_4273_solute_opt,mol_4273_solvent_opt,50,15,273.15,-2.332381694050317,Imatinib,acetone
4274.0,O=c1[nH]c(=O)n(C2CCCO2)cc1F,CC(C)=O,mol_4274_solute_opt,mol_4274_solvent_opt,50,33,273.15,-0.8802285095862643,β tegafur,acetone
4275.0,N#Cc1ccc2c(c1)OCO2,CC(C)=O,mol_4275_solute_opt,mol_4275_solvent_opt,50,40,278.15,0.1931506848465103,Piperonylonitrile,acetone
4276.0,COc1ccc(-n2nc(C(N)=O)c3c2C(=O)N(c2ccc(N4CCCCC4=O)cc2)CC3)cc1,CC(C)=O,mol_4276_solute_opt,mol_4276_solvent_opt,50,23,288.15,-2.48313956940696,Apixaban,acetone
4277.0,CC(C)Oc1ccc2c(=O)c(-c3ccccc3)coc2c1,CC(C)=O,mol_4277_solute_opt,mol_4277_solvent_opt,50,35,278.15,-0.9229825411614736,Ipriflavone,acetone
4278.0,O=c1c2ccccc2nc2n1CCc1c-2[nH]c2ccccc12,CC(C)=O,mol_4278_solute_opt,mol_4278_solvent_opt,50,33,283.15,-2.020512004771794,Rutaecarpine,acetone
4279.0,COCCOC(=O)C1=C(C)NC(C)=C(C(=O)OC(C)C)C1c1cccc([N+](=O)[O-])c1,CC(C)=O,mol_4279_solute_opt,mol_4279_solvent_opt,50,24,278.15,-0.7717761691707442,Nimodipine,acetone
4280.0,CC(=O)Nc1ccc(OC(=O)c2ccccc2OC(C)=O)cc1,CC(C)=O,mol_4280_solute_opt,mol_4280_solvent_opt,50,28,278.15,-1.524572625009768,Benorilate,acetone
4281.0,O=c1cc(CO)occ1O,CC(C)=O,mol_4281_solute_opt,mol_4281_solvent_opt,50,42,278.15,-1.505710554563659,Kojic acid,acetone
4282.0,Nc1cccc2c1C(=O)N(C1CCC(=O)NC1=O)C2=O,CC(C)=O,mol_4282_solute_opt,mol_4282_solvent_opt,50,29,278.15,-4.701595825218478,Pomalidomide,acetone
4283.0,CN1CCN(C2=Nc3cc(Cl)ccc3Nc3ccccc32)CC1,CC(C)=O,mol_4283_solute_opt,mol_4283_solvent_opt,50,28,278.15,-0.7885450430460147,Clozapine,acetone
4284.0,CC(=O)Nc1ccc(C(=O)O)cc1,CC(C)=O,mol_4284_solute_opt,mol_4284_solvent_opt,50,34,283.15,-1.378096767351022,p-acetamidobenzoic acid,acetone